 Gaussian 09, Revision E.01,

 ----------------------------------------------------------------------
 # M062X/Gen 6D SCF=Tight INT(grid=ultrafine) OPT IOP(2/17=4) maxdisk=2
 684354560
 ----------------------------------------------------------------------

 -----------------------------
 3SF55Chloro.M062X_6-31pGd_opt
 -----------------------------
 Symbolic Z-matrix:
 Charge =  0 Multiplicity = 1

 SCF Done:  E(RM062X) =  -1930.09422029     A.U. after   15 cycles
 SCF Done:  E(RM062X) =  -1930.09529498     A.U. after   13 cycles
 SCF Done:  E(RM062X) =  -1930.09562722     A.U. after   13 cycles
 SCF Done:  E(RM062X) =  -1930.09573052     A.U. after   12 cycles
 SCF Done:  E(RM062X) =  -1930.09579120     A.U. after   12 cycles
 SCF Done:  E(RM062X) =  -1930.09587668     A.U. after   13 cycles
 SCF Done:  E(RM062X) =  -1930.09593571     A.U. after   13 cycles
 SCF Done:  E(RM062X) =  -1930.09598405     A.U. after   12 cycles
 SCF Done:  E(RM062X) =  -1930.09610114     A.U. after   14 cycles
 SCF Done:  E(RM062X) =  -1930.09612482     A.U. after   13 cycles
 SCF Done:  E(RM062X) =  -1930.09627420     A.U. after   12 cycles
 SCF Done:  E(RM062X) =  -1930.09627789     A.U. after   12 cycles
 SCF Done:  E(RM062X) =  -1930.09627980     A.U. after   12 cycles
 SCF Done:  E(RM062X) =  -1930.09628013     A.U. after    9 cycles
 SCF Done:  E(RM062X) =  -1930.09628017     A.U. after    7 cycles
 SCF Done:  E(RM062X) =  -1930.09628020     A.U. after    9 cycles
 SCF Done:  E(RM062X) =  -1930.09628019     A.U. after    9 cycles
 SCF Done:  E(RM062X) =  -1930.09628017     A.U. after    8 cycles
 Optimization completed.
    -- Stationary point found.
 Normal termination of Gaussian 09 at Wed Oct 31 13:59:47 2018.
 Gaussian 09:  ES64L-G09RevE.01 30-Nov-2015

 ----------------------------------------------------------------------
 # M062X/Gen 6D SCF=Tight INT(grid=ultrafine) OPT IOP(2/17=4) Freq=Nora
 man maxdisk=2684354560 geom=check guess=read IOP(2/17=4)
 ----------------------------------------------------------------------

 -----------------------------
 3SF55Chloro.M062X_6-31pGd_opt
 -----------------------------
 Structure from the checkpoint file:  "3SF55Chloro.M062X_6-31pGd_opt.chk"
 Charge =  0 Multiplicity = 1

 SCF Done:  E(RM062X) =  -1930.09628017     A.U. after    1 cycles
 Optimization completed.
    -- Stationary point found.
 Normal termination of Gaussian 09 at Wed Oct 31 14:00:57 2018.

 ----------------------------------------------------------------------
 #N Geom=AllCheck Guess=TCheck SCRF=Check Test GenChk RM062X/ChkBas Fre
 q
 ----------------------------------------------------------------------

 Structure from the checkpoint file:  "3SF55Chloro.M062X_6-31pGd_opt.chk"
 -----------------------------
 3SF55Chloro.M062X_6-31pGd_opt
 -----------------------------
 Charge =  0 Multiplicity = 1

                         Standard orientation:
 ---------------------------------------------------------------------
 Center     Atomic      Atomic             Coordinates (Angstroms)
 Number     Number       Type             X           Y           Z
 ---------------------------------------------------------------------
      1          6           0       -7.553712   -1.042459   -0.071308
      2          6           0       -6.471322    0.034589   -0.049923
      3          6           0       -5.081701   -0.574592    0.082567
      4          7           0       -4.064095    0.470372    0.092887
      5          6           0       -2.744124    0.109696   -0.014706
      6          8           0       -2.382748   -1.030604   -0.241649
      7          7           0       -1.866561    1.182616    0.129007
      8          6           0       -0.470642    1.142430    0.062141
      9          6           0        0.264336   -0.051187    0.056156
     10          6           0        0.203612    2.369851    0.025628
     11          6           0        1.589401    2.400768   -0.015181
     12          6           0        2.348401    1.236339   -0.023352
     13          6           0        1.647870    0.038489    0.013507
     14          1           0       -8.548882   -0.599829   -0.167086
     15          1           0       -7.536880   -1.636323    0.848657
     16          1           0       -7.407275   -1.726228   -0.913955
     17          1           0       -6.654088    0.721059    0.788642
     18          1           0       -6.512460    0.632899   -0.967791
     19          1           0       -4.866300   -1.231201   -0.764637
     20          1           0       -5.014809   -1.189073    0.991433
     21          1           0       -4.287397    1.307023    0.618018
     22          1           0       -2.273090    2.108555    0.107742
     23          1           0       -0.242943   -1.005119    0.074387
     24          1           0       -0.349877    3.304571    0.029447
     25          1           0        3.430063    1.273401   -0.057572
     26         16           0        2.602073   -1.509519    0.007268
     27          9           0        1.715234   -2.139635    1.195501
     28          9           0        3.650481   -0.939307    1.095065
     29          9           0        1.628793   -2.187127   -1.080585
     30         17           0        2.396387    3.940984   -0.060557
     31          9           0        3.450858   -2.872240    0.003890
     32          9           0        3.563082   -0.985446   -1.179135
 ---------------------------------------------------------------------

 SCF Done:  E(RM062X) =  -1930.09628017     A.U. after    2 cycles

 The electronic state is 1-A.
 Alpha  occ. eigenvalues -- -102.68997 -90.32532 -25.30195 -25.30194 -25.30181
 Alpha  occ. eigenvalues --  -25.30169 -25.30004 -19.63391 -14.82971 -14.80730
 Alpha  occ. eigenvalues --  -10.70777 -10.64560 -10.64235 -10.62330 -10.59673
 Alpha  occ. eigenvalues --  -10.59497 -10.59315 -10.58614 -10.56765 -10.55349
 Alpha  occ. eigenvalues --   -9.83659  -8.61142  -7.56069  -7.55391  -7.55378
 Alpha  occ. eigenvalues --   -6.53580  -6.53571  -6.53150  -1.49137  -1.39265
 Alpha  occ. eigenvalues --   -1.39191  -1.36235  -1.34751  -1.20198  -1.08751
 Alpha  occ. eigenvalues --   -1.05339  -1.02192  -0.97385  -0.92921  -0.90230
 Alpha  occ. eigenvalues --   -0.87349  -0.85827  -0.80112  -0.76211  -0.74542
 Alpha  occ. eigenvalues --   -0.72745  -0.72686  -0.70537  -0.69314  -0.68580
 Alpha  occ. eigenvalues --   -0.65314  -0.63365  -0.61787  -0.61342  -0.61058
 Alpha  occ. eigenvalues --   -0.60207  -0.57713  -0.57411  -0.56148  -0.55273
 Alpha  occ. eigenvalues --   -0.54836  -0.54516  -0.54502  -0.54227  -0.54131
 Alpha  occ. eigenvalues --   -0.52876  -0.51856  -0.51705  -0.50677  -0.50456
 Alpha  occ. eigenvalues --   -0.50107  -0.49806  -0.48776  -0.47421  -0.47240
 Alpha  occ. eigenvalues --   -0.44631  -0.44319  -0.43657  -0.42301  -0.41634
 Alpha  occ. eigenvalues --   -0.39753  -0.39669  -0.36880  -0.34243  -0.33149
 Alpha  occ. eigenvalues --   -0.29924
 Alpha virt. eigenvalues --   -0.02360  -0.01611  -0.00931  -0.00536   0.01399
 Alpha virt. eigenvalues --    0.01972   0.02526   0.03010   0.03294   0.04441
 Alpha virt. eigenvalues --    0.04681   0.05061   0.05220   0.05704   0.06124

 Mulliken charges:
               1
     1  C   -0.714052
     2  C   -0.319547
     3  C   -0.176951
     4  N   -0.571185
     5  C    0.649785
     6  O   -0.555790
     7  N   -0.673279
     8  C    0.259705
     9  C    0.326550
    10  C   -1.152583
    11  C    0.588040
    12  C   -0.778301
    13  C   -0.121255
    14  H    0.215865
    15  H    0.215359
    16  H    0.216802
    17  H    0.203346
    18  H    0.227747
    19  H    0.244907
    20  H    0.219067
    21  H    0.387986
    22  H    0.414809
    23  H    0.306112
    24  H    0.220503
    25  H    0.266635
    26  S    2.329531
    27  F   -0.489470
    28  F   -0.494127
    29  F   -0.487556
    30  Cl   0.224789
    31  F   -0.489626
    32  F   -0.493816
 Sum of Mulliken charges =  -0.00000

 Dipole moment (field-independent basis, Debye):
    X=             -6.3958    Y=              4.7419    Z=              1.0087  Tot=              8.0256
 Quadrupole moment (field-independent basis, Debye-Ang):
   XX=           -111.2182   YY=           -131.9767   ZZ=           -133.1418
   XY=             -4.5778   XZ=             -3.9211   YZ=              0.8198

  Exact polarizability: 228.238  13.695 187.578  -2.148   0.399 109.587
 Approx polarizability: 233.774   8.407 229.211  -3.212   1.767 144.108

                      1                      2                      3
                      A                      A                      A
 Frequencies --     19.1066                22.1667                38.2511
 Red. masses --      6.0703                 2.7687                 9.8854
 Frc consts  --      0.0013                 0.0008                 0.0085
 IR Inten    --      0.4484                 4.2206                 1.1368

                      4                      5                      6
                      A                      A                      A
 Frequencies --     47.7716                58.6274                75.9425
 Red. masses --      4.9702                 3.6785                 3.0768
 Frc consts  --      0.0067                 0.0074                 0.0105
 IR Inten    --      0.3317                 4.8496                 1.1681

                      7                      8                      9
                      A                      A                      A
 Frequencies --    102.6983               107.6567               146.3224
 Red. masses --      7.4258                 6.7485                 9.3794
 Frc consts  --      0.0461                 0.0461                 0.1183
 IR Inten    --      0.0988                 0.8224                 4.6892

                     10                     11                     12
                      A                      A                      A
 Frequencies --    182.3759               191.0742               195.0592
 Red. masses --      3.1826                 5.5426                 6.7459
 Frc consts  --      0.0624                 0.1192                 0.1512
 IR Inten    --      0.3734                 0.1788                 0.3223

                     13                     14                     15
                      A                      A                      A
 Frequencies --    233.4905               235.6871               241.7978
 Red. masses --      2.8303                 1.4839                 3.1655
 Frc consts  --      0.0909                 0.0486                 0.1090
 IR Inten    --      7.9590                 2.6293                 0.5913

                     16                     17                     18
                      A                      A                      A
 Frequencies --    270.5680               276.9389               316.6933
 Red. masses --      9.0511                 7.2282                 6.8050
 Frc consts  --      0.3904                 0.3266                 0.4021
 IR Inten    --      1.1262                 0.2124                 2.8171

                     19                     20                     21
                      A                      A                      A
 Frequencies --    339.3408               340.6431               362.4547
 Red. masses --     18.3725                 2.9845                 1.6332
 Frc consts  --      1.2465                 0.2040                 0.1264
 IR Inten    --      0.2725                64.7897                30.7572

                     22                     23                     24
                      A                      A                      A
 Frequencies --    392.8412               394.3675               445.9930
 Red. masses --     11.7188                14.9444                 5.1111
 Frc consts  --      1.0655                 1.3694                 0.5990
 IR Inten    --      0.9539                 3.3678                 5.5925

                     25                     26                     27
                      A                      A                      A
 Frequencies --    451.3404               460.3157               490.1594
 Red. masses --      3.2054                17.3655                 1.5759
 Frc consts  --      0.3847                 2.1679                 0.2231
 IR Inten    --     26.7628                 0.6468                95.3284

                     28                     29                     30
                      A                      A                      A
 Frequencies --    498.7995               540.7508               561.2319
 Red. masses --      4.6642                12.6426                13.8788
 Frc consts  --      0.6837                 2.1781                 2.5756
 IR Inten    --     15.0780                15.1333                 6.9053

                     31                     32                     33
                      A                      A                      A
 Frequencies --    564.0573               596.8048               613.1656
 Red. masses --      6.1823                17.5099                 5.2446
 Frc consts  --      1.1589                 3.6745                 1.1618
 IR Inten    --      0.1874               107.1887                 0.1933

                     34                     35                     36
                      A                      A                      A
 Frequencies --    624.3209               654.3125               678.9261
 Red. masses --     18.2349                 5.5390                17.6119
 Frc consts  --      4.1876                 1.3972                 4.7830
 IR Inten    --      0.2124                16.9548                19.0126

                     37                     38                     39
                      A                      A                      A
 Frequencies --    682.8531               752.8321               762.6229
 Red. masses --      2.6949                 2.1523                 3.0724
 Frc consts  --      0.7404                 0.7187                 1.0528
 IR Inten    --     16.2019                12.0260                53.2040

                     40                     41                     42
                      A                      A                      A
 Frequencies --    768.3860               811.7527               874.7734
 Red. masses --      2.7537                 6.6771                 1.5499
 Frc consts  --      0.9579                 2.5923                 0.6988
 IR Inten    --     41.7685                88.9659                19.8362

                     43                     44                     45
                      A                      A                      A
 Frequencies --    892.1811               893.6506               900.0233
 Red. masses --      1.4625                 7.9789                 1.1928
 Frc consts  --      0.6859                 3.7543                 0.5693
 IR Inten    --     15.1285               266.3624                 1.3052

                     46                     47                     48
                      A                      A                      A
 Frequencies --    912.6890               918.1681               928.1847
 Red. masses --      9.9313                21.9588                 1.5516
 Frc consts  --      4.8742                10.9070                 0.7876
 IR Inten    --    337.4516               252.6197                68.2009

                     49                     50                     51
                      A                      A                      A
 Frequencies --    929.5598               976.6755              1013.4605
 Red. masses --      1.7372                 5.8409                 5.8942
 Frc consts  --      0.8844                 3.2827                 3.5669
 IR Inten    --     56.2622                72.5347                10.3701

                     52                     53                     54
                      A                      A                      A
 Frequencies --   1049.2585              1082.6617              1150.6276
 Red. masses --      4.2071                 2.6315                 2.3087
 Frc consts  --      2.7290                 1.8174                 1.8009
 IR Inten    --     15.5390                18.7913                 9.1700

                     55                     56                     57
                      A                      A                      A
 Frequencies --   1157.2380              1165.6843              1166.1663
 Red. masses --      1.6494                 2.3015                 1.7514
 Frc consts  --      1.3014                 1.8425                 1.4033
 IR Inten    --     20.5982                 1.5970                59.0440

                     58                     59                     60
                      A                      A                      A
 Frequencies --   1181.5736              1237.7815              1280.2435
 Red. masses --      1.7756                 1.7158                 1.4292
 Frc consts  --      1.4606                 1.5488                 1.3802
 IR Inten    --      0.9918               279.1798                28.5737

                     61                     62                     63
                      A                      A                      A
 Frequencies --   1290.4567              1315.8827              1328.5924
 Red. masses --      1.5705                 1.9067                 1.1436
 Frc consts  --      1.5409                 1.9452                 1.1893
 IR Inten    --    110.8125                13.9159                22.4175

                     64                     65                     66
                      A                      A                      A
 Frequencies --   1347.5564              1361.3839              1426.0054
 Red. masses --      1.3379                 4.1277                 1.5006
 Frc consts  --      1.4314                 4.5074                 1.7979
 IR Inten    --      3.1472                73.3364                 0.7373

                     67                     68                     69
                      A                      A                      A
 Frequencies --   1437.5051              1460.9250              1516.7351
 Red. masses --      1.3212                 2.5500                 1.1060
 Frc consts  --      1.6086                 3.2067                 1.4991
 IR Inten    --      2.0203                67.0000                54.1211

                     70                     71                     72
                      A                      A                      A
 Frequencies --   1518.5783              1523.7143              1527.4913
 Red. masses --      2.9420                 1.0506                 1.0794
 Frc consts  --      3.9973                 1.4372                 1.4838
 IR Inten    --    297.9117                10.0918                 0.5963

                     73                     74                     75
                      A                      A                      A
 Frequencies --   1538.3525              1546.8792              1588.0327
 Red. masses --      1.2241                 1.6086                 2.3259
 Frc consts  --      1.7068                 2.2679                 3.4558
 IR Inten    --     20.3055               207.5417               749.0555

                     76                     77                     78
                      A                      A                      A
 Frequencies --   1666.0820              1686.6869              1828.6615
 Red. masses --      5.3803                 7.1496                 8.8812
 Frc consts  --      8.7993                11.9840                17.4979
 IR Inten    --     84.0920               164.8321               266.6396

                     79                     80                     81
                      A                      A                      A
 Frequencies --   3058.3807              3060.3861              3080.7661
 Red. masses --      1.0641                 1.0719                 1.0364
 Frc consts  --      5.8645                 5.9151                 5.7957
 IR Inten    --     16.2275                40.0121                29.2050

                     82                     83                     84
                      A                      A                      A
 Frequencies --   3107.5890              3146.6440              3153.4586
 Red. masses --      1.0961                 1.0976                 1.1011
 Frc consts  --      6.2368                 6.4031                 6.4516
 IR Inten    --     15.6140                 1.3176                46.0501

                     85                     86                     87
                      A                      A                      A
 Frequencies --   3161.5945              3228.7098              3276.8959
 Red. masses --      1.1019                 1.0922                 1.0935
 Frc consts  --      6.4894                 6.7081                 6.9183
 IR Inten    --     27.3706                 2.6634                 9.0200

                     88                     89                     90
                      A                      A                      A
 Frequencies --   3306.7743              3622.5252              3638.9271
 Red. masses --      1.0925                 1.0774                 1.0771
 Frc consts  --      7.0382                 8.3298                 8.4037
 IR Inten    --     33.5491                22.3386                34.4700

 - Thermochemistry -
 -------------------
 Temperature   298.150 Kelvin.  Pressure   1.00000 Atm.
 Atom     1 has atomic number  6 and mass  12.00000

 Molecular mass:   338.02790 amu.
 Principal axes and moments of inertia in atomic units:
                           1         2         3
     Eigenvalues --  4812.37951********************
           X            0.99987   0.01621  -0.00043
           Y           -0.01621   0.99987   0.00113
           Z            0.00045  -0.00112   1.00000
 This molecule is an asymmetric top.
 Rotational symmetry number  1.
 Warning -- assumption of classical behavior for rotation
           may cause significant error
 Rotational temperatures (Kelvin)      0.01800     0.00640     0.00493
 Rotational constants (GHZ):           0.37502     0.13344     0.10263
 Zero-point vibrational energy     604193.5 (Joules/Mol)
                                  144.40572 (Kcal/Mol)
 Warning -- explicit consideration of  33 degrees of freedom as
           vibrations may cause significant error
 Vibrational temperatures:     27.49    31.89    55.03    68.73    84.35
          (Kelvin)            109.26   147.76   154.89   210.53   262.40
                              274.91   280.65   335.94   339.10   347.89
                              389.29   398.45   455.65   488.24   490.11
                              521.49   565.21   567.41   641.68   649.38
                              662.29   705.23   717.66   778.02   807.49
                              811.55   858.67   882.21   898.26   941.41
                              976.82   982.47  1083.16  1097.24  1105.53
                             1167.93  1258.60  1283.65  1285.76  1294.93
                             1313.15  1321.04  1335.45  1337.43  1405.22
                             1458.14  1509.65  1557.71  1655.49  1665.01
                             1677.16  1677.85  1700.02  1780.89  1841.98
                             1856.68  1893.26  1911.55  1938.83  1958.73
                             2051.70  2068.25  2101.94  2182.24  2184.89
                             2192.28  2197.72  2213.34  2225.61  2284.82
                             2397.12  2426.76  2631.03  4400.32  4403.21
                             4432.53  4471.12  4527.31  4537.12  4548.82
                             4645.39  4714.72  4757.70  5212.00  5235.60

 Zero-point correction=                           0.230125 (Hartree/Particle)
 Thermal correction to Energy=                    0.250195
 Thermal correction to Enthalpy=                  0.251139
 Thermal correction to Gibbs Free Energy=         0.178553
 Sum of electronic and zero-point Energies=          -1929.866155
 Sum of electronic and thermal Energies=             -1929.846085
 Sum of electronic and thermal Enthalpies=           -1929.845141
 Sum of electronic and thermal Free Energies=        -1929.917727

                     E (Thermal)             CV                S
                      KCal/Mol        Cal/Mol-Kelvin    Cal/Mol-Kelvin
 Total                  157.000             74.096            152.770
 Electronic               0.000              0.000              0.000
 Translational            0.889              2.981             43.349
 Rotational               0.889              2.981             35.391
 Vibrational            155.222             68.135             74.030
 Vibration     1          0.593              1.986              6.725
 Vibration     2          0.593              1.985              6.430
 Vibration     3          0.594              1.982              5.348
 Vibration     4          0.595              1.978              4.908
 Vibration     5          0.596              1.974              4.503
 Vibration     6          0.599              1.965              3.993
 Vibration     7          0.605              1.947              3.402
 Vibration     8          0.606              1.943              3.311
 Vibration     9          0.617              1.907              2.720
 Vibration    10          0.630              1.864              2.304
 Vibration    11          0.634              1.852              2.217
 Vibration    12          0.636              1.847              2.179
 Vibration    13          0.654              1.790              1.852
 Vibration    14          0.655              1.786              1.835
 Vibration    15          0.658              1.776              1.790
 Vibration    16          0.674              1.727              1.593
 Vibration    17          0.678              1.716              1.553
 Vibration    18          0.704              1.642              1.327
 Vibration    19          0.719              1.597              1.215
 Vibration    20          0.720              1.594              1.209
 Vibration    21          0.736              1.550              1.112
 Vibration    22          0.760              1.485              0.989
 Vibration    23          0.761              1.482              0.984
 Vibration    24          0.805              1.370              0.808
 Vibration    25          0.810              1.358              0.792
 Vibration    26          0.818              1.338              0.765
 Vibration    27          0.846              1.272              0.683
 Vibration    28          0.854              1.253              0.661
 Vibration    29          0.896              1.160              0.564
 Vibration    30          0.917              1.115              0.521
 Vibration    31          0.920              1.109              0.516
 Vibration    32          0.955              1.039              0.455
 Vibration    33          0.972              1.004              0.428

 Optimization completed.
    -- Stationary point found.
 Normal termination of Gaussian 09 at Wed Oct 31 15:11:39 2018.
