 Gaussian 09, Revision E.01,

 ----------------------------------------------------------------------
 # M062X/Gen 6D SCF=Tight INT(grid=ultrafine) OPT IOP(2/17=4) SCRF=(SMD
 ,Solvent=h2o)
 ----------------------------------------------------------------------

 --------------------------------------
 3Chloro4TFM_a1.M062X_6-31pGd_opt_water
 --------------------------------------
 Symbolic Z-matrix:
 Charge = -1 Multiplicity = 1

 SCF Done:  E(RM062X) =  -1370.04773013     A.U. after   15 cycles
 SCF Done:  E(RM062X) =  -1370.06897027     A.U. after   14 cycles
 SCF Done:  E(RM062X) =  -1370.06984388     A.U. after   14 cycles
 SCF Done:  E(RM062X) =  -1370.07114107     A.U. after   13 cycles
 SCF Done:  E(RM062X) =  -1370.07121549     A.U. after   12 cycles
 SCF Done:  E(RM062X) =  -1370.07127745     A.U. after   13 cycles
 SCF Done:  E(RM062X) =  -1370.07114012     A.U. after   14 cycles
 SCF Done:  E(RM062X) =  -1370.07130442     A.U. after   12 cycles
 SCF Done:  E(RM062X) =  -1370.07135654     A.U. after   13 cycles
 SCF Done:  E(RM062X) =  -1370.07139251     A.U. after   12 cycles
 SCF Done:  E(RM062X) =  -1370.07694786     A.U. after   13 cycles
 SCF Done:  E(RM062X) =  -1370.07697205     A.U. after   13 cycles
 SCF Done:  E(RM062X) =  -1370.07697948     A.U. after   12 cycles
 SCF Done:  E(RM062X) =  -1370.07698271     A.U. after   12 cycles
 SCF Done:  E(RM062X) =  -1370.07698287     A.U. after   11 cycles
 SCF Done:  E(RM062X) =  -1370.07698291     A.U. after   11 cycles
 SCF Done:  E(RM062X) =  -1370.07698285     A.U. after   11 cycles
 SCF Done:  E(RM062X) =  -1370.07698286     A.U. after   10 cycles
 Optimization completed.
    -- Stationary point found.

 1\1\GINC-R133\FOpt\RM062X\Gen\C11H11Cl1F3N2O1(1-)\ROOT\31-Oct-2018\0\\
 # M062X/Gen 6D SCF=Tight INT(grid=ultrafine) OPT IOP(2/17=4) SCRF=(SMD
 ,Solvent=h2o)\\3Chloro4TFM_a1.M062X_6-31pGd_opt_water\\-1,1\C,-1.91046
 19917,1.8227346008,0.1611937628\C,-0.570722233,1.2852514556,-0.3326250
 596\C,0.5837485316,2.1660061692,0.1225554215\N,1.8554633696,1.63087943
 76,-0.3452338238\C,3.0421262488,2.2419582923,0.020556736\O,2.996974530
 4,3.440049789,0.4203668676\N,4.1222013753,1.4432574516,-0.0841391038\C
 ,5.3858997686,1.9619288868,-0.0137176781\C,5.7528512878,3.3074471738,-

 Normal termination of Gaussian 09 at Wed Oct 31 04:41:24 2018.
 Gaussian 09:  ES64L-G09RevE.01 30-Nov-2015

 ----------------------------------------------------------------------
 # M062X/Gen 6D SCF=Tight INT(grid=ultrafine) OPT IOP(2/17=4) SCRF=(SMD
 ,Solvent=h2o) Freq=Noraman geom=check guess=read IOP(2/17=4)
 ----------------------------------------------------------------------

 --------------------------------------
 3Chloro4TFM_a1.M062X_6-31pGd_opt_water
 --------------------------------------
 Structure from the checkpoint file:  "3Chloro4TFM_a1.M062X_6-31pGd_opt_water.chk"
 Charge = -1 Multiplicity = 1

 SCF Done:  E(RM062X) =  -1370.07698286     A.U. after    2 cycles
 Optimization completed.
    -- Stationary point found.

 1\1\GINC-R133\FOpt\RM062X\Gen\C11H11Cl1F3N2O1(1-)\ROOT\31-Oct-2018\0\\
 # M062X/Gen 6D SCF=Tight INT(grid=ultrafine) OPT IOP(2/17=4) SCRF=(SMD
 ,Solvent=h2o) Freq=Noraman geom=check guess=read IOP(2/17=4)\\3Chloro4
 TFM_a1.M062X_6-31pGd_opt_water\\-1,1\C,-1.9104619917,1.8227346008,0.16
 11937628\C,-0.570722233,1.2852514556,-0.3326250596\C,0.5837485316,2.16
 60061692,0.1225554215\N,1.8554633696,1.6308794376,-0.3452338238\C,3.04
 21262488,2.2419582923,0.020556736\O,2.9969745304,3.440049789,0.4203668
 676\N,4.1222013753,1.4432574516,-0.0841391038\C,5.3858997686,1.9619288

 Normal termination of Gaussian 09 at Wed Oct 31 04:46:57 2018.

 ----------------------------------------------------------------------
 #N Geom=AllCheck Guess=TCheck SCRF=Check Test GenChk RM062X/ChkBas Fre
 q
 ----------------------------------------------------------------------

 Structure from the checkpoint file:  "3Chloro4TFM_a1.M062X_6-31pGd_opt_water.chk"
 --------------------------------------
 3Chloro4TFM_a1.M062X_6-31pGd_opt_water
 --------------------------------------
 Charge = -1 Multiplicity = 1

                         Standard orientation:
 ---------------------------------------------------------------------
 Center     Atomic      Atomic             Coordinates (Angstroms)
 Number     Number       Type             X           Y           Z
 ---------------------------------------------------------------------
      1          6           0       -7.458569    0.370662    0.261870
      2          6           0       -6.241891   -0.312424   -0.355170
      3          6           0       -4.943981    0.253486    0.202412
      4          7           0       -3.793707   -0.419232   -0.386456
      5          6           0       -2.514214   -0.105504    0.037645
      6          8           0       -2.336224    0.996516    0.630251
      7          7           0       -1.601103   -1.059291   -0.230618
      8          6           0       -0.263100   -0.799735   -0.115320
      9          6           0        0.347092    0.482773   -0.177122
     10          6           0        0.614514   -1.907963   -0.000016
     11          6           0        1.986634   -1.754153    0.066778
     12          6           0        2.577533   -0.485139    0.015504
     13          6           0        1.722728    0.614772   -0.114899
     14          1           0       -8.389286   -0.036298   -0.145000
     15          1           0       -7.445992    1.447891    0.061115
     16          1           0       -7.477147    0.231671    1.348629
     17          1           0       -6.252394   -0.185569   -1.444626
     18          1           0       -6.280862   -1.391530   -0.157200
     19          1           0       -4.937976    0.153078    1.298518
     20          1           0       -4.883418    1.323278   -0.021777
     21          1           0       -3.928357   -1.401833   -0.599162
     22          1           0       -0.262529    1.369341   -0.289505
     23          1           0        0.183756   -2.904171    0.037175
     24          1           0        2.618934   -2.631190    0.162158
     25         17           0        2.382162    2.239197   -0.211730
     26          6           0        4.060082   -0.337635    0.090571
     27          9           0        4.593872    0.245887   -1.008034
     28          9           0        4.680779   -1.525364    0.220066
     29          9           0        4.468794    0.415219    1.138310
 ---------------------------------------------------------------------

 SCF Done:  E(RM062X) =  -1370.07698286     A.U. after    1 cycles

 The electronic state is 1-A.
 Alpha  occ. eigenvalues -- -102.67610 -25.30425 -25.29898 -25.29883 -19.59718
 Alpha  occ. eigenvalues --  -14.75814 -14.71489 -10.81305 -10.65122 -10.62544
 Alpha  occ. eigenvalues --  -10.59265 -10.57356 -10.56575 -10.56438 -10.55065
 Alpha  occ. eigenvalues --  -10.54434 -10.53629 -10.52706  -9.82267  -7.54663
 Alpha  occ. eigenvalues --   -7.54016  -7.53995  -1.46618  -1.37469  -1.36971
 Alpha  occ. eigenvalues --   -1.14143  -1.01329  -1.00638  -0.97983  -0.93050
 Alpha  occ. eigenvalues --   -0.87858  -0.86145  -0.83195  -0.79780  -0.76163
 Alpha  occ. eigenvalues --   -0.71754  -0.70415  -0.68930  -0.67804  -0.67068
 Alpha  occ. eigenvalues --   -0.64979  -0.63074  -0.58854  -0.57319  -0.57238
 Alpha  occ. eigenvalues --   -0.55293  -0.53999  -0.53642  -0.53061  -0.52804
 Alpha  occ. eigenvalues --   -0.52388  -0.51121  -0.50717  -0.49653  -0.49227
 Alpha  occ. eigenvalues --   -0.47940  -0.47057  -0.45551  -0.44411  -0.44033
 Alpha  occ. eigenvalues --   -0.41785  -0.41272  -0.40693  -0.39100  -0.38686
 Alpha  occ. eigenvalues --   -0.38426  -0.36418  -0.34385  -0.30923  -0.30668
 Alpha  occ. eigenvalues --   -0.29899  -0.24238
 Alpha virt. eigenvalues --    0.00707   0.01468   0.01738   0.02984   0.03293
 Alpha virt. eigenvalues --    0.04153   0.04337   0.04431   0.05142   0.05594
 Alpha virt. eigenvalues --    0.06113   0.06603   0.06720   0.07224   0.08047

 Mulliken charges:
               1
     1  C   -0.749833
     2  C   -0.365920
     3  C   -0.361620
     4  N   -0.609154
     5  C    0.792080
     6  O   -0.832884
     7  N   -0.630087
     8  C    0.152650
     9  C   -0.103431
    10  C   -0.455767
    11  C   -0.424245
    12  C   -1.523300
    13  C    0.631750
    14  H    0.220396
    15  H    0.219459
    16  H    0.220074
    17  H    0.228300
    18  H    0.223503
    19  H    0.210649
    20  H    0.224151
    21  H    0.436349
    22  H    0.260321
    23  H    0.240588
    24  H    0.265880
    25  Cl   0.202046
    26  C    1.458109
    27  F   -0.292054
    28  F   -0.349772
    29  F   -0.288239
 Sum of Mulliken charges =  -1.00000

 Dipole moment (field-independent basis, Debye):
    X=             -1.1998    Y=             -3.1533    Z=             -0.9706  Tot=              3.5107
 Quadrupole moment (field-independent basis, Debye-Ang):
   XX=           -137.3473   YY=           -118.3429   ZZ=           -120.7138
   XY=              2.0406   XZ=              2.2886   YZ=             -3.6283

  Exact polarizability: 333.868   0.342 247.499   4.928   3.943 162.221
 Approx polarizability: 255.168   3.691 214.282   5.265   2.935 143.468

                      1                      2                      3
                      A                      A                      A
 Frequencies --     24.7304                39.2899                49.6476
 Red. masses --      5.6421                 3.0801                 6.3341
 Frc consts  --      0.0020                 0.0028                 0.0092
 IR Inten    --      5.1560                 2.5906                 1.0249

                      4                      5                      6
                      A                      A                      A
 Frequencies --     56.0893                76.6525                81.6742
 Red. masses --      4.8746                 4.6107                 3.5645
 Frc consts  --      0.0090                 0.0160                 0.0140
 IR Inten    --      1.9503                10.8975                 7.6625

                      7                      8                      9
                      A                      A                      A
 Frequencies --    112.0255               148.2490               158.1385
 Red. masses --      4.8915                 5.9091                12.8042
 Frc consts  --      0.0362                 0.0765                 0.1887
 IR Inten    --      5.3929                 1.7664                 3.6062

                     10                     11                     12
                      A                      A                      A
 Frequencies --    175.3250               184.4388               214.0728
 Red. masses --      3.1631                 7.0445                 6.7415
 Frc consts  --      0.0573                 0.1412                 0.1820
 IR Inten    --     12.4022                 0.8986                 0.6081

                     13                     14                     15
                      A                      A                      A
 Frequencies --    241.4688               249.0816               274.5202
 Red. masses --      1.1945                 5.9715                 6.4870
 Frc consts  --      0.0410                 0.2183                 0.2880
 IR Inten    --      0.2389                 5.6843                11.1821

                     16                     17                     18
                      A                      A                      A
 Frequencies --    325.5336               350.7511               387.5484
 Red. masses --     10.9406                 4.6702                 6.9553
 Frc consts  --      0.6831                 0.3385                 0.6155
 IR Inten    --      1.8769                16.3433                52.0337

                     19                     20                     21
                      A                      A                      A
 Frequencies --    417.6336               429.5922               454.8538
 Red. masses --      7.5597                 6.4579                 3.4744
 Frc consts  --      0.7769                 0.7022                 0.4235
 IR Inten    --      0.6293                 5.7094                 6.1814

                     22                     23                     24
                      A                      A                      A
 Frequencies --    469.0852               495.2533               547.5552
 Red. masses --      7.5641                 2.7533                 1.8459
 Frc consts  --      0.9806                 0.3979                 0.3261
 IR Inten    --     24.9637                57.9519               295.6604

                     25                     26                     27
                      A                      A                      A
 Frequencies --    565.4985               594.7896               635.8558
 Red. masses --     10.1024                10.3008                 3.5911
 Frc consts  --      1.9034                 2.1471                 0.8554
 IR Inten    --      6.7528                 7.5837                20.3757

                     28                     29                     30
                      A                      A                      A
 Frequencies --    648.2266               712.4773               731.6419
 Red. masses --      5.7169                 7.9750                 4.2562
 Frc consts  --      1.4154                 2.3852                 1.3424
 IR Inten    --     34.5921                13.0315                 3.5111

                     31                     32                     33
                      A                      A                      A
 Frequencies --    757.6810               767.4379               779.5400
 Red. masses --      1.2238                 4.4589                 8.0625
 Frc consts  --      0.4139                 1.5473                 2.8867
 IR Inten    --     35.7209                74.7899                70.0328

                     34                     35                     36
                      A                      A                      A
 Frequencies --    804.3524               848.2393               879.3647
 Red. masses --      6.1836                 1.5011                 1.6317
 Frc consts  --      2.3571                 0.6364                 0.7434
 IR Inten    --     48.6137                61.5974                68.3208

                     37                     38                     39
                      A                      A                      A
 Frequencies --    904.7052               921.1269               939.1038
 Red. masses --      1.1625                 3.3536                 2.1780
 Frc consts  --      0.5606                 1.6765                 1.1317
 IR Inten    --     18.9769                30.5200                27.2932

                     40                     41                     42
                      A                      A                      A
 Frequencies --    987.4294              1021.1332              1034.7117
 Red. masses --      1.3261                 4.3181                 5.3664
 Frc consts  --      0.7618                 2.6528                 3.3851
 IR Inten    --      3.1718                28.6214                76.0986

                     43                     44                     45
                      A                      A                      A
 Frequencies --   1081.0393              1120.5684              1137.7954
 Red. masses --      2.5371                 2.9110                12.5078
 Frc consts  --      1.7469                 2.1536                 9.5402
 IR Inten    --     42.4152               679.1824               464.2733

                     46                     47                     48
                      A                      A                      A
 Frequencies --   1140.5978              1155.8798              1167.5383
 Red. masses --      2.2862                 2.1160                 1.8280
 Frc consts  --      1.7524                 1.6656                 1.4682
 IR Inten    --     65.2852                82.7435                 7.7953

                     49                     50                     51
                      A                      A                      A
 Frequencies --   1185.4471              1191.4112              1259.8447
 Red. masses --      2.8707                 2.2583                 1.5885
 Frc consts  --      2.3769                 1.8887                 1.4855
 IR Inten    --    110.5071               191.6659               199.9701

                     52                     53                     54
                      A                      A                      A
 Frequencies --   1278.2969              1289.1011              1324.2541
 Red. masses --      1.3405                 1.5016                 1.1071
 Frc consts  --      1.2905                 1.4702                 1.1438
 IR Inten    --    168.6368               660.2752                83.5510

                     55                     56                     57
                      A                      A                      A
 Frequencies --   1328.6598              1342.3270              1349.1625
 Red. masses --      6.6911                 1.6005                 4.0453
 Frc consts  --      6.9595                 1.6991                 4.3384
 IR Inten    --     62.7684               241.9600              1200.9435

                     58                     59                     60
                      A                      A                      A
 Frequencies --   1394.7294              1420.9339              1437.9206
 Red. masses --      2.7063                 1.3215                 2.0773
 Frc consts  --      3.1017                 1.5720                 2.5306
 IR Inten    --    991.4592                87.7779               616.1178

                     61                     62                     63
                      A                      A                      A
 Frequencies --   1455.3628              1488.9873              1495.3187
 Red. masses --      4.7440                 1.2604                 1.5924
 Frc consts  --      5.9202                 1.6464                 2.0978
 IR Inten    --    137.9801               254.6045               487.5531

                     64                     65                     66
                      A                      A                      A
 Frequencies --   1503.6652              1514.3915              1531.2579
 Red. masses --      1.0412                 1.1552                 1.1609
 Frc consts  --      1.3870                 1.5609                 1.6038
 IR Inten    --     12.8180               143.3718               172.1821

                     67                     68                     69
                      A                      A                      A
 Frequencies --   1538.2601              1569.1363              1603.5509
 Red. masses --      3.7880                 4.2072                 7.2766
 Frc consts  --      5.2810                 6.1033                11.0242
 IR Inten    --    638.5154               636.7668               212.9977

                     70                     71                     72
                      A                      A                      A
 Frequencies --   1675.7903              3039.0741              3068.2954
 Red. masses --      7.2723                 1.0704                 1.0615
 Frc consts  --     12.0326                 5.8246                 5.8877
 IR Inten    --    321.9426                96.8437                53.1674

                     73                     74                     75
                      A                      A                      A
 Frequencies --   3074.5675              3104.3041              3123.7692
 Red. masses --      1.0365                 1.0976                 1.0973
 Frc consts  --      5.7727                 6.2321                 6.3087
 IR Inten    --     44.5071                17.0499                61.7073

                     76                     77                     78
                      A                      A                      A
 Frequencies --   3143.0959              3153.4942              3231.0976
 Red. masses --      1.1036                 1.1020                 1.0896
 Frc consts  --      6.4235                 6.4570                 6.7022
 IR Inten    --    101.7089                53.2840                 9.3100

                     79                     80                     81
                      A                      A                      A
 Frequencies --   3249.5520              3286.7358              3608.3436
 Red. masses --      1.0945                 1.0910                 1.0772
 Frc consts  --      6.8094                 6.9439                 8.2631
 IR Inten    --      3.6958                 3.2370                68.3735

 - Thermochemistry -
 -------------------
 Temperature   298.150 Kelvin.  Pressure   1.00000 Atm.
 Atom     1 has atomic number  6 and mass  12.00000

 Molecular mass:   279.05120 amu.
 Principal axes and moments of inertia in atomic units:
                           1         2         3
     Eigenvalues --  1614.67499********************
           X            0.99999  -0.00328  -0.00099
           Y            0.00328   0.99998   0.00481
           Z            0.00098  -0.00481   0.99999
 This molecule is an asymmetric top.
 Rotational symmetry number  1.
 Warning -- assumption of classical behavior for rotation
           may cause significant error
 Rotational temperatures (Kelvin)      0.05364     0.00610     0.00564
 Rotational constants (GHZ):           1.11771     0.12710     0.11760
 Zero-point vibrational energy     559613.6 (Joules/Mol)
                                  133.75085 (Kcal/Mol)
 Warning -- explicit consideration of  26 degrees of freedom as
           vibrations may cause significant error
 Vibrational temperatures:     35.58    56.53    71.43    80.70   110.29
          (Kelvin)            117.51   161.18   213.30   227.53   252.25
                              265.37   308.00   347.42   358.37   394.97
                              468.37   504.65   557.60   600.88   618.09
                              654.43   674.91   712.56   787.81   813.63
                              855.77   914.85   932.65  1025.09  1052.67
                             1090.13  1104.17  1121.58  1157.28  1220.43
                             1265.21  1301.67  1325.29  1351.16  1420.69
                             1469.18  1488.72  1555.37  1612.25  1637.03
                             1641.06  1663.05  1679.83  1705.59  1714.17
                             1812.63  1839.18  1854.73  1905.30  1911.64
                             1931.31  1941.14  2006.70  2044.40  2068.84
                             2093.94  2142.32  2151.43  2163.44  2178.87
                             2203.14  2213.21  2257.63  2307.15  2411.09
                             4372.54  4414.59  4423.61  4466.40  4494.40
                             4522.21  4537.17  4648.82  4675.37  4728.87
                             5191.60

 Zero-point correction=                           0.213146 (Hartree/Particle)
 Thermal correction to Energy=                    0.230511
 Thermal correction to Enthalpy=                  0.231455
 Thermal correction to Gibbs Free Energy=         0.165456
 Sum of electronic and zero-point Energies=          -1369.863837
 Sum of electronic and thermal Energies=             -1369.846472
 Sum of electronic and thermal Enthalpies=           -1369.845528
 Sum of electronic and thermal Free Energies=        -1369.911527

                     E (Thermal)             CV                S
                      KCal/Mol        Cal/Mol-Kelvin    Cal/Mol-Kelvin
 Total                  144.648             62.861            138.906
 Electronic               0.000              0.000              0.000
 Translational            0.889              2.981             42.777
 Rotational               0.889              2.981             34.219
 Vibrational            142.870             56.900             61.910
 Vibration     1          0.593              1.985              6.213
 Vibration     2          0.594              1.981              5.295
 Vibration     3          0.595              1.978              4.831
 Vibration     4          0.596              1.975              4.590
 Vibration     5          0.599              1.965              3.975
 Vibration     6          0.600              1.962              3.850
 Vibration     7          0.607              1.940              3.234
 Vibration     8          0.618              1.905              2.695
 Vibration     9          0.621              1.894              2.572
 Vibration    10          0.627              1.873              2.378
 Vibration    11          0.631              1.861              2.283
 Vibration    12          0.644              1.820              2.009
 Vibration    13          0.658              1.777              1.792
 Vibration    14          0.662              1.764              1.737
 Vibration    15          0.677              1.720              1.568
 Vibration    16          0.710              1.624              1.282
 Vibration    17          0.728              1.574              1.163
 Vibration    18          0.756              1.497              1.010
 Vibration    19          0.781              1.432              0.900
 Vibration    20          0.791              1.406              0.860
 Vibration    21          0.813              1.350              0.781
 Vibration    22          0.826              1.319              0.740
 Vibration    23          0.851              1.261              0.670
 Vibration    24          0.903              1.145              0.549
 Vibration    25          0.921              1.106              0.513
 Vibration    26          0.952              1.043              0.459

 Optimization completed.
    -- Stationary point found.

 1\1\GINC-R133\Freq\RM062X\Gen\C11H11Cl1F3N2O1(1-)\ROOT\31-Oct-2018\0\\
 #N Geom=AllCheck Guess=TCheck SCRF=Check Test GenChk RM062X/ChkBas Fre
 q\\3Chloro4TFM_a1.M062X_6-31pGd_opt_water\\-1,1\C,-1.9104619917,1.8227
 346008,0.1611937628\C,-0.570722233,1.2852514556,-0.3326250596\C,0.5837
 485316,2.1660061692,0.1225554215\N,1.8554633696,1.6308794376,-0.345233
 8238\C,3.0421262488,2.2419582923,0.020556736\O,2.9969745304,3.44004978
 9,0.4203668676\N,4.1222013753,1.4432574516,-0.0841391038\C,5.385899768
 6,1.9619288868,-0.0137176781\C,5.7528512878,3.3074471738,-0.2892309769

 Normal termination of Gaussian 09 at Wed Oct 31 08:05:00 2018.
