 Gaussian 09, Revision E.01,

 ----------------------------------------------------------------------
 # M062X/Gen 6D SCF=Tight INT(grid=ultrafine) OPT IOP(2/17=4) SCRF=(SMD
 ,Solvent=h2o) maxdisk=2147483648
 ----------------------------------------------------------------------

 -----------------------------------
 3Chloro4TFM.M062X_6-31pGd_opt_water
 -----------------------------------
 Symbolic Z-matrix:
 Charge =  0 Multiplicity = 1

 SCF Done:  E(RM062X) =  -1370.53580629     A.U. after   15 cycles
 SCF Done:  E(RM062X) =  -1370.54825347     A.U. after   14 cycles
 SCF Done:  E(RM062X) =  -1370.54950562     A.U. after   13 cycles
 SCF Done:  E(RM062X) =  -1370.54985391     A.U. after   12 cycles
 SCF Done:  E(RM062X) =  -1370.54993815     A.U. after   12 cycles
 SCF Done:  E(RM062X) =  -1370.55031193     A.U. after   14 cycles
 SCF Done:  E(RM062X) =  -1370.53540691     A.U. after   16 cycles
 SCF Done:  E(RM062X) =  -1370.55053723     A.U. after   11 cycles
 SCF Done:  E(RM062X) =  -1370.55309789     A.U. after   16 cycles
 SCF Done:  E(RM062X) =  -1370.55304739     A.U. after   15 cycles
 SCF Done:  E(RM062X) =  -1370.55454909     A.U. after   10 cycles
 SCF Done:  E(RM062X) =  -1370.55455004     A.U. after   10 cycles
 SCF Done:  E(RM062X) =  -1370.55455033     A.U. after    9 cycles
 SCF Done:  E(RM062X) =  -1370.55455052     A.U. after    9 cycles
 SCF Done:  E(RM062X) =  -1370.55455093     A.U. after    9 cycles
 SCF Done:  E(RM062X) =  -1370.55455115     A.U. after   10 cycles
 SCF Done:  E(RM062X) =  -1370.55455117     A.U. after    9 cycles
 SCF Done:  E(RM062X) =  -1370.55455116     A.U. after    8 cycles
 Optimization completed.
    -- Stationary point found.
 Normal termination of Gaussian 09 at Thu Nov  1 15:15:36 2018.
 Gaussian 09:  ES64L-G09RevE.01 30-Nov-2015

 ----------------------------------------------------------------------
 # M062X/Gen 6D SCF=Tight INT(grid=ultrafine) OPT IOP(2/17=4) SCRF=(SMD
 ,Solvent=h2o) Freq=Noraman maxdisk=2147483648 geom=check guess=read IO
 P(2/17=4)
 ----------------------------------------------------------------------

 -----------------------------------
 3Chloro4TFM.M062X_6-31pGd_opt_water
 -----------------------------------
 Structure from the checkpoint file:  "3Chloro4TFM.M062X_6-31pGd_opt_water.chk"
 Charge =  0 Multiplicity = 1

 SCF Done:  E(RM062X) =  -1370.55455116     A.U. after    1 cycles
 Optimization completed.
    -- Stationary point found.
 Normal termination of Gaussian 09 at Thu Nov  1 15:16:41 2018.

 ----------------------------------------------------------------------
 #N Geom=AllCheck Guess=TCheck SCRF=Check Test GenChk RM062X/ChkBas Fre
 q
 ----------------------------------------------------------------------

 Structure from the checkpoint file:  "3Chloro4TFM.M062X_6-31pGd_opt_water.chk"
 -----------------------------------
 3Chloro4TFM.M062X_6-31pGd_opt_water
 -----------------------------------
 Charge =  0 Multiplicity = 1

                         Standard orientation:
 ---------------------------------------------------------------------
 Center     Atomic      Atomic             Coordinates (Angstroms)
 Number     Number       Type             X           Y           Z
 ---------------------------------------------------------------------
      1          6           0        7.512699    0.408287    0.019493
      2          6           0        6.277665   -0.485228   -0.031852
      3          6           0        5.002183    0.341097    0.027700
      4          7           0        3.832062   -0.526947   -0.033835
      5          6           0        2.585764   -0.016813    0.034580
      6          8           0        2.372336    1.193097    0.199632
      7          7           0        1.571872   -0.950846   -0.082187
      8          6           0        0.196824   -0.735328   -0.046516
      9          6           0       -0.395589    0.536133   -0.065674
     10          6           0       -0.626745   -1.872346   -0.010248
     11          6           0       -2.004296   -1.743672    0.012330
     12          6           0       -2.607505   -0.483902    0.001013
     13          6           0       -1.779722    0.639204   -0.040523
     14          1           0        8.429368   -0.187404   -0.020485
     15          1           0        7.532203    0.996288    0.943690
     16          1           0        7.526385    1.106177   -0.824888
     17          1           0        6.289691   -1.191724    0.806914
     18          1           0        6.281801   -1.077734   -0.955147
     19          1           0        4.975508    1.054587   -0.805065
     20          1           0        4.970407    0.919083    0.957862
     21          1           0        3.970374   -1.510850   -0.237312
     22          1           0        1.852948   -1.925574   -0.137777
     23          1           0        0.207552    1.431297   -0.103901
     24          1           0       -0.176194   -2.860476    0.000762
     25          1           0       -2.621862   -2.634789    0.041953
     26         17           0       -2.460074    2.247574   -0.068568
     27          6           0       -4.101442   -0.366401    0.031124
     28          9           0       -4.596490    0.264097   -1.054403
     29          9           0       -4.547890    0.321771    1.102692
     30          9           0       -4.698082   -1.569650    0.076777
 ---------------------------------------------------------------------

 SCF Done:  E(RM062X) =  -1370.55455116     A.U. after    1 cycles

 The electronic state is 1-A.
 Alpha  occ. eigenvalues -- -102.68503 -25.30997 -25.30558 -25.30555 -19.62675
 Alpha  occ. eigenvalues --  -14.80979 -14.78983 -10.82093 -10.69779 -10.63920
 Alpha  occ. eigenvalues --  -10.62707 -10.59068 -10.58004 -10.57773 -10.57119
 Alpha  occ. eigenvalues --  -10.56758 -10.54221 -10.52978  -9.83158  -7.55563
 Alpha  occ. eigenvalues --   -7.54901  -7.54875  -1.47372  -1.38155  -1.37751
 Alpha  occ. eigenvalues --   -1.18745  -1.07015  -1.03707  -1.01232  -0.94984
 Alpha  occ. eigenvalues --   -0.89998  -0.87669  -0.85045  -0.81666  -0.77958
 Alpha  occ. eigenvalues --   -0.73841  -0.72320  -0.69660  -0.69632  -0.68640
 Alpha  occ. eigenvalues --   -0.67687  -0.66489  -0.63540  -0.61306  -0.57937
 Alpha  occ. eigenvalues --   -0.57917  -0.56096  -0.55790  -0.54771  -0.54110
 Alpha  occ. eigenvalues --   -0.53770  -0.52989  -0.52522  -0.51726  -0.51561
 Alpha  occ. eigenvalues --   -0.50906  -0.49897  -0.48561  -0.46712  -0.45832
 Alpha  occ. eigenvalues --   -0.45751  -0.43405  -0.42617  -0.42033  -0.39971
 Alpha  occ. eigenvalues --   -0.39340  -0.39042  -0.38388  -0.36241  -0.33212
 Alpha  occ. eigenvalues --   -0.31703  -0.28483
 Alpha virt. eigenvalues --   -0.00745   0.00141   0.01206   0.02242   0.03033
 Alpha virt. eigenvalues --    0.03759   0.03997   0.04270   0.04864   0.05469
 Alpha virt. eigenvalues --    0.05522   0.05995   0.06275   0.07312   0.07571

 Mulliken charges:
               1
     1  C   -0.746290
     2  C   -0.385144
     3  C   -0.162715
     4  N   -0.670751
     5  C    0.934642
     6  O   -0.751406
     7  N   -0.648711
     8  C   -0.027088
     9  C    0.401828
    10  C   -1.116348
    11  C   -0.373172
    12  C   -1.598366
    13  C    0.830850
    14  H    0.223895
    15  H    0.222376
    16  H    0.222753
    17  H    0.235406
    18  H    0.234190
    19  H    0.236998
    20  H    0.240142
    21  H    0.484972
    22  H    0.501143
    23  H    0.294459
    24  H    0.269568
    25  H    0.282396
    26  Cl   0.235540
    27  C    1.531126
    28  F   -0.280775
    29  F   -0.278547
    30  F   -0.342970
 Sum of Mulliken charges =  -0.00000

 Dipole moment (field-independent basis, Debye):
    X=              8.5596    Y=             -8.6421    Z=             -0.9766  Tot=             12.2027
 Quadrupole moment (field-independent basis, Debye-Ang):
   XX=           -104.7495   YY=           -103.3951   ZZ=           -115.5213
   XY=            -11.5268   XZ=             -2.7372   YZ=              0.0186

  Exact polarizability: 285.131  -6.514 238.767  -1.079   0.916 145.168
 Approx polarizability: 226.084  -7.919 211.236  -1.147   0.820 130.723

                      1                      2                      3
                      A                      A                      A
 Frequencies --     18.4065                33.6336                49.3110
 Red. masses --      5.7210                 3.1173                 5.1885
 Frc consts  --      0.0011                 0.0021                 0.0074
 IR Inten    --      0.0471                 8.0971                 3.2254

                      4                      5                      6
                      A                      A                      A
 Frequencies --     54.9101                59.4607                65.9948
 Red. masses --      8.5193                 5.0889                 2.6370
 Frc consts  --      0.0151                 0.0106                 0.0068
 IR Inten    --      2.3400                 3.1172                29.2682

                      7                      8                      9
                      A                      A                      A
 Frequencies --    100.0184               139.1197               151.5344
 Red. masses --      6.4197                 5.5599                 3.0348
 Frc consts  --      0.0378                 0.0634                 0.0411
 IR Inten    --      0.6087                 7.6218                13.5089

                     10                     11                     12
                      A                      A                      A
 Frequencies --    161.0575               182.7993               208.7754
 Red. masses --     13.0204                 6.4204                 6.8541
 Frc consts  --      0.1990                 0.1264                 0.1760
 IR Inten    --      1.5781                 1.5389                 2.0450

                     13                     14                     15
                      A                      A                      A
 Frequencies --    234.5467               245.3136               256.9803
 Red. masses --      7.1936                 1.1305                 5.9053
 Frc consts  --      0.2332                 0.0401                 0.2298
 IR Inten    --      1.2365                 0.2437                 4.9673

                     16                     17                     18
                      A                      A                      A
 Frequencies --    318.6638               342.4821               359.8874
 Red. masses --     12.6372                 4.2734                 1.1616
 Frc consts  --      0.7561                 0.2953                 0.0886
 IR Inten    --      2.8746                19.7973                91.5078

                     19                     20                     21
                      A                      A                      A
 Frequencies --    382.9058               415.7208               423.0634
 Red. masses --      6.4310                 6.0241                 5.7332
 Frc consts  --      0.5555                 0.6134                 0.6046
 IR Inten    --     26.8394                 4.1250                 4.3389

                     22                     23                     24
                      A                      A                      A
 Frequencies --    455.5148               469.2492               507.5157
 Red. masses --      4.0785                 9.2840                 5.0438
 Frc consts  --      0.4986                 1.2045                 0.7654
 IR Inten    --      5.6440                14.7210                25.4679

                     25                     26                     27
                      A                      A                      A
 Frequencies --    537.0514               562.6299               595.6231
 Red. masses --      1.1645                12.9091                10.5022
 Frc consts  --      0.1979                 2.4076                 2.1952
 IR Inten    --    240.1561                 7.7185                 1.9677

                     28                     29                     30
                      A                      A                      A
 Frequencies --    630.6776               648.6977               718.6808
 Red. masses --      3.5209                 7.2040                 7.7078
 Frc consts  --      0.8251                 1.7861                 2.3456
 IR Inten    --     17.9134                16.9369                20.6126

                     31                     32                     33
                      A                      A                      A
 Frequencies --    742.5507               759.8409               768.6558
 Red. masses --      4.6177                 1.7133                 8.5580
 Frc consts  --      1.5001                 0.5828                 2.9791
 IR Inten    --      0.8643                22.9077                14.3290

                     34                     35                     36
                      A                      A                      A
 Frequencies --    770.4065               796.4429               859.1185
 Red. masses --      2.1451                 7.8477                 1.4579
 Frc consts  --      0.7501                 2.9329                 0.6340
 IR Inten    --      3.3813                 7.0473                85.3832

                     37                     38                     39
                      A                      A                      A
 Frequencies --    900.3353               909.1497               927.5517
 Red. masses --      1.4687                 1.1519                 2.0534
 Frc consts  --      0.7014                 0.5610                 1.0409
 IR Inten    --     50.8027                 3.1589                 1.3055

                     40                     41                     42
                      A                      A                      A
 Frequencies --    950.5332               999.7733              1037.8165
 Red. masses --      3.5783                 1.3338                 5.3857
 Frc consts  --      1.9048                 0.7855                 3.4177
 IR Inten    --     35.1201                 2.5012                39.1028

                     43                     44                     45
                      A                      A                      A
 Frequencies --   1051.4655              1085.3282              1135.6408
 Red. masses --      4.2936                 2.5844                 2.6368
 Frc consts  --      2.7968                 1.7936                 2.0036
 IR Inten    --     17.1543                10.7642               331.9607

                     46                     47                     48
                      A                      A                      A
 Frequencies --   1146.8154              1157.4686              1171.1070
 Red. masses --      2.6162                12.5640                 2.9345
 Frc consts  --      2.0273                 9.9173                 2.3713
 IR Inten    --     42.7949               455.5763                48.5743

                     49                     50                     51
                      A                      A                      A
 Frequencies --   1178.0247              1182.6496              1208.6989
 Red. masses --      3.9826                 1.6538                 1.6051
 Frc consts  --      3.2563                 1.3628                 1.3816
 IR Inten    --    148.9557                 4.2893               175.8158

                     52                     53                     54
                      A                      A                      A
 Frequencies --   1270.2812              1282.8127              1284.1578
 Red. masses --      1.5084                 1.3284                 1.6329
 Frc consts  --      1.4340                 1.2880                 1.5866
 IR Inten    --    405.9253                 1.5999               117.2882

                     55                     56                     57
                      A                      A                      A
 Frequencies --   1311.0680              1330.0061              1350.6312
 Red. masses --      2.4695                 1.0732                 1.4699
 Frc consts  --      2.5010                 1.1185                 1.5798
 IR Inten    --      7.7880                 1.9380                58.8361

                     58                     59                     60
                      A                      A                      A
 Frequencies --   1355.6703              1373.3499              1422.3150
 Red. masses --      3.4566                 6.2501                 1.2982
 Frc consts  --      3.7429                 6.9454                 1.5473
 IR Inten    --    600.4864               637.1262                 8.3845

                     61                     62                     63
                      A                      A                      A
 Frequencies --   1430.4907              1449.7896              1492.7963
 Red. masses --      1.6413                 3.7229                 1.0573
 Frc consts  --      1.9788                 4.6105                 1.3882
 IR Inten    --     11.0752               186.0113                12.2398

                     64                     65                     66
                      A                      A                      A
 Frequencies --   1503.8779              1513.4683              1532.1409
 Red. masses --      1.0395                 1.0856                 1.0909
 Frc consts  --      1.3851                 1.4651                 1.5087
 IR Inten    --     11.8406                13.8987                50.6922

                     67                     68                     69
                      A                      A                      A
 Frequencies --   1554.0165              1569.0030              1583.0026
 Red. masses --      2.1281                 3.2990                 2.4679
 Frc consts  --      3.0280                 4.7850                 3.6436
 IR Inten    --    579.8820                25.1010              1107.4455

                     70                     71                     72
                      A                      A                      A
 Frequencies --   1657.6969              1688.6404              1710.4357
 Red. masses --      6.3493                 4.5494                 4.4390
 Frc consts  --     10.2798                 7.6432                 7.6516
 IR Inten    --    397.6045                17.3279               880.6683

                     73                     74                     75
                      A                      A                      A
 Frequencies --   3074.4048              3078.0594              3081.8627
 Red. masses --      1.0603                 1.0374                 1.0585
 Frc consts  --      5.9046                 5.7907                 5.9236
 IR Inten    --      9.1382                22.1523               104.5637

                     76                     77                     78
                      A                      A                      A
 Frequencies --   3108.5647              3128.1807              3148.5492
 Red. masses --      1.1025                 1.1069                 1.1040
 Frc consts  --      6.2768                 6.3819                 6.4481
 IR Inten    --      2.0922                50.5255                94.6336

                     79                     80                     81
                      A                      A                      A
 Frequencies --   3157.9791              3238.3568              3261.8391
 Red. masses --      1.1023                 1.0918                 1.0944
 Frc consts  --      6.4771                 6.7458                 6.8605
 IR Inten    --     47.5763                 1.9533                 0.4238

                     82                     83                     84
                      A                      A                      A
 Frequencies --   3309.5426              3584.6831              3624.6278
 Red. masses --      1.0925                 1.0790                 1.0799
 Frc consts  --      7.0506                 8.1694                 8.3590
 IR Inten    --     26.7283               108.8085               197.2405

 - Thermochemistry -
 -------------------
 Temperature   298.150 Kelvin.  Pressure   1.00000 Atm.
 Atom     1 has atomic number  6 and mass  12.00000

 Molecular mass:   280.05903 amu.
 Principal axes and moments of inertia in atomic units:
                           1         2         3
     Eigenvalues --  1608.15271********************
           X            1.00000   0.00193  -0.00012
           Y           -0.00193   1.00000   0.00198
           Z            0.00012  -0.00198   1.00000
 This molecule is an asymmetric top.
 Rotational symmetry number  1.
 Warning -- assumption of classical behavior for rotation
           may cause significant error
 Rotational temperatures (Kelvin)      0.05386     0.00600     0.00553
 Rotational constants (GHZ):           1.12224     0.12510     0.11513
 Zero-point vibrational energy     595333.0 (Joules/Mol)
                                  142.28799 (Kcal/Mol)
 Warning -- explicit consideration of  27 degrees of freedom as
           vibrations may cause significant error
 Vibrational temperatures:     26.48    48.39    70.95    79.00    85.55
          (Kelvin)             94.95   143.90   200.16   218.02   231.73
                              263.01   300.38   337.46   352.95   369.74
                              458.49   492.75   517.80   550.92   598.13
                              608.69   655.38   675.14   730.20   772.70
                              809.50   856.97   907.40   933.33  1034.02
                             1068.36  1093.24  1105.92  1108.44  1145.90
                             1236.08  1295.38  1308.06  1334.54  1367.60
                             1438.45  1493.18  1512.82  1561.54  1633.93
                             1650.01  1665.34  1684.96  1694.91  1701.57
                             1739.05  1827.65  1845.68  1847.61  1886.33
                             1913.58  1943.25  1950.50  1975.94  2046.39
                             2058.15  2085.92  2147.80  2163.74  2177.54
                             2204.41  2235.88  2257.44  2277.58  2385.05
                             2429.57  2460.93  4423.38  4428.64  4434.11
                             4472.53  4500.75  4530.05  4543.62  4659.27
                             4693.05  4761.69  5157.55  5215.02

 Zero-point correction=                           0.226750 (Hartree/Particle)
 Thermal correction to Energy=                    0.244690
 Thermal correction to Enthalpy=                  0.245634
 Thermal correction to Gibbs Free Energy=         0.177772
 Sum of electronic and zero-point Energies=          -1370.327801
 Sum of electronic and thermal Energies=             -1370.309861
 Sum of electronic and thermal Enthalpies=           -1370.308917
 Sum of electronic and thermal Free Energies=        -1370.376780

                     E (Thermal)             CV                S
                      KCal/Mol        Cal/Mol-Kelvin    Cal/Mol-Kelvin
 Total                  153.545             64.418            142.829
 Electronic               0.000              0.000              0.000
 Translational            0.889              2.981             42.788
 Rotational               0.889              2.981             34.252
 Vibrational            151.768             58.456             65.789
 Vibration     1          0.593              1.986              6.799
 Vibration     2          0.594              1.983              5.603
 Vibration     3          0.595              1.978              4.845
 Vibration     4          0.596              1.976              4.632
 Vibration     5          0.597              1.974              4.475
 Vibration     6          0.597              1.970              4.269
 Vibration     7          0.604              1.949              3.454
 Vibration     8          0.615              1.914              2.816
 Vibration     9          0.619              1.901              2.653
 Vibration    10          0.622              1.890              2.537
 Vibration    11          0.630              1.863              2.300
 Vibration    12          0.642              1.827              2.054
 Vibration    13          0.654              1.788              1.844
 Vibration    14          0.660              1.771              1.764
 Vibration    15          0.667              1.751              1.682
 Vibration    16          0.705              1.638              1.317
 Vibration    17          0.722              1.591              1.201
 Vibration    18          0.734              1.555              1.123
 Vibration    19          0.752              1.507              1.028
 Vibration    20          0.779              1.436              0.907
 Vibration    21          0.785              1.420              0.882
 Vibration    22          0.814              1.349              0.779
 Vibration    23          0.826              1.318              0.740
 Vibration    24          0.863              1.233              0.640
 Vibration    25          0.892              1.168              0.572
 Vibration    26          0.918              1.112              0.519
 Vibration    27          0.953              1.041              0.457

 Optimization completed on the basis of negligible forces.
    -- Stationary point found.
 Normal termination of Gaussian 09 at Thu Nov  1 15:59:51 2018.
