 Gaussian 09, Revision E.01,

 ----------------------------------------------------------------------
 # M062X/Gen 6D SCF=Tight INT(grid=ultrafine) OPT IOP(2/17=4) SCRF=(SMD
 ,Solvent=h2o) maxdisk=2684354560
 ----------------------------------------------------------------------

 ----------------------------------
 3Nitro_EtO.M062X_6-31pGd_opt_water
 ----------------------------------
 Symbolic Z-matrix:
 Charge = -1 Multiplicity = 1

 SCF Done:  E(RM062X) =  -1046.28190006     A.U. after   16 cycles
 SCF Done:  E(RM062X) =  -1046.31725410     A.U. after   16 cycles
 SCF Done:  E(RM062X) =  -1046.32575364     A.U. after   16 cycles
 SCF Done:  E(RM062X) =  -1046.32812051     A.U. after   17 cycles
 SCF Done:  E(RM062X) =  -1046.32620360     A.U. after   15 cycles
 SCF Done:  E(RM062X) =  -1046.32835530     A.U. after   12 cycles
 SCF Done:  E(RM062X) =  -1046.32855975     A.U. after   17 cycles
 SCF Done:  E(RM062X) =  -1046.32858905     A.U. after   17 cycles
 SCF Done:  E(RM062X) =  -1046.32904062     A.U. after   16 cycles
 SCF Done:  E(RM062X) =  -1046.32909090     A.U. after   14 cycles
 SCF Done:  E(RM062X) =  -1046.32914671     A.U. after   11 cycles
 SCF Done:  E(RM062X) =  -1046.32914726     A.U. after   11 cycles
 SCF Done:  E(RM062X) =  -1046.32914807     A.U. after   11 cycles
 SCF Done:  E(RM062X) =  -1046.32914842     A.U. after   10 cycles
 SCF Done:  E(RM062X) =  -1046.32914858     A.U. after   10 cycles
 SCF Done:  E(RM062X) =  -1046.32914866     A.U. after    9 cycles
 SCF Done:  E(RM062X) =  -1046.32914869     A.U. after    9 cycles
 SCF Done:  E(RM062X) =  -1046.32914873     A.U. after    9 cycles
 Optimization completed.
    -- Stationary point found.
 Normal termination of Gaussian 09 at Tue Feb 19 11:07:43 2019.
 Gaussian 09:  ES64L-G09RevE.01 30-Nov-2015

 ----------------------------------------------------------------------
 # M062X/Gen 6D SCF=Tight INT(grid=ultrafine) OPT IOP(2/17=4) SCRF=(SMD
 ,Solvent=h2o) Freq=Noraman maxdisk=2684354560 geom=check guess=read IO
 P(2/17=4)
 ----------------------------------------------------------------------

 ----------------------------------
 3Nitro_EtO.M062X_6-31pGd_opt_water
 ----------------------------------
 Structure from the checkpoint file:  "3Nitro_EtO.M062X_6-31pGd_opt_water.chk"
 Charge = -1 Multiplicity = 1

 SCF Done:  E(RM062X) =  -1046.32914873     A.U. after    1 cycles
 Optimization completed.
    -- Stationary point found.
 Normal termination of Gaussian 09 at Tue Feb 19 11:08:36 2019.

 ----------------------------------------------------------------------
 #N Geom=AllCheck Guess=TCheck SCRF=Check Test GenChk RM062X/ChkBas Fre
 q
 ----------------------------------------------------------------------

 Structure from the checkpoint file:  "3Nitro_EtO.M062X_6-31pGd_opt_water.chk"
 ----------------------------------
 3Nitro_EtO.M062X_6-31pGd_opt_water
 ----------------------------------
 Charge = -1 Multiplicity = 1

                         Standard orientation:
 ---------------------------------------------------------------------
 Center     Atomic      Atomic             Coordinates (Angstroms)
 Number     Number       Type             X           Y           Z
 ---------------------------------------------------------------------
      1          6           0       -4.376801    3.972826   -0.023962
      2          6           0       -3.716371    2.597867   -0.015067
      3          6           0       -2.199702    2.718379   -0.054398
      4          7           0       -1.585863    1.398587   -0.046020
      5          6           0       -0.245821    1.261613   -0.062518
      6          8           0        0.525890    2.238821   -0.104056
      7          7           0        0.191497   -0.046412   -0.034261
      8          6           0        1.506275   -0.503854   -0.047007
      9          6           0        2.634883    0.319907    0.038534
     10          6           0        1.691677   -1.897561   -0.138523
     11          6           0        2.961902   -2.457173   -0.148502
     12          6           0        4.097396   -1.652809   -0.070410
     13          6           0        3.888233   -0.284332    0.021065
     14          1           0       -5.467127    3.885946    0.002225
     15          1           0       -4.104735    4.532129   -0.926051
     16          1           0       -4.055820    2.012023   -0.878216
     17          1           0       -4.012575    2.044558    0.884710
     18          1           0       -1.848875    3.296446    0.809869
     19          1           0       -1.891671    3.263156   -0.955396
     20          1           0       -2.195412    0.573172    0.023058
     21          1           0        2.544637    1.391905    0.118856
     22          1           0        0.817422   -2.539478   -0.202042
     23          1           0        3.070595   -3.534361   -0.221323
     24          7           0        5.062171    0.591319    0.106676
     25          1           0        5.095962   -2.071191   -0.081098
     26          8           0        4.888769    1.799954    0.167249
     27          8           0        6.171394    0.076036    0.113932
     28          1           0       -4.064658    4.562806    0.844982
     29          1           0       -0.534643   -0.780838   -0.060385
     30          8           0       -1.722659   -2.164298   -0.133173
     31          8           0       -3.468461   -0.798039    0.152377
     32          6           0       -2.964970   -1.946850    0.013361
     33          6           0       -3.876356   -3.170707    0.014236
     34          6           0       -5.359182   -2.875976    0.189858
     35          1           0       -3.515741   -3.835532    0.808369
     36          1           0       -3.694991   -3.702682   -0.927479
     37          1           0       -5.552751   -2.370485    1.141049
     38          1           0       -5.937233   -3.805372    0.177413
     39          1           0       -5.733465   -2.234437   -0.613935
 ---------------------------------------------------------------------

 SCF Done:  E(RM062X) =  -1046.32914873     A.U. after    1 cycles

 The electronic state is 1-A.
 Alpha  occ. eigenvalues --  -19.70014 -19.69972 -19.61719 -19.60583 -19.60281
 Alpha  occ. eigenvalues --  -15.03031 -14.78866 -14.77137 -10.68476 -10.65022
 Alpha  occ. eigenvalues --  -10.61841 -10.61705 -10.57162 -10.57088 -10.57030
 Alpha  occ. eigenvalues --  -10.56807 -10.56710 -10.53822 -10.53617 -10.52765
 Alpha  occ. eigenvalues --  -10.52592  -1.38448  -1.19620  -1.17452  -1.16468
 Alpha  occ. eigenvalues --   -1.06703  -1.05531  -1.02311  -0.98598  -0.90786
 Alpha  occ. eigenvalues --   -0.87884  -0.85718  -0.85361  -0.80217  -0.77464
 Alpha  occ. eigenvalues --   -0.72324  -0.72090  -0.69527  -0.67882  -0.67069
 Alpha  occ. eigenvalues --   -0.65429  -0.63851  -0.62705  -0.61567  -0.59132
 Alpha  occ. eigenvalues --   -0.57810  -0.57486  -0.55279  -0.53455  -0.53356
 Alpha  occ. eigenvalues --   -0.52749  -0.52533  -0.51747  -0.51508  -0.50542
 Alpha  occ. eigenvalues --   -0.49509  -0.47043  -0.46271  -0.46160  -0.44891
 Alpha  occ. eigenvalues --   -0.44684  -0.44168  -0.43669  -0.41663  -0.41376
 Alpha  occ. eigenvalues --   -0.40797  -0.39950  -0.39654  -0.39570  -0.39490
 Alpha  occ. eigenvalues --   -0.39197  -0.38362  -0.35411  -0.33815  -0.32989
 Alpha  occ. eigenvalues --   -0.32702  -0.32371  -0.32091  -0.27260
 Alpha virt. eigenvalues --   -0.06594   0.01186   0.01940   0.02948   0.03397
 Alpha virt. eigenvalues --    0.03464   0.03915   0.04227   0.04468   0.04890
 Alpha virt. eigenvalues --    0.05481   0.05954   0.06420   0.06769   0.07024

 Mulliken charges:
               1
     1  C   -0.809935
     2  C   -0.365267
     3  C   -0.167869
     4  N   -0.790734
     5  C    0.782993
     6  O   -0.742326
     7  N   -0.697355
     8  C    0.490013
     9  C    0.059231
    10  C   -0.759885
    11  C   -0.371653
    12  C   -0.048212
    13  C   -0.040402
    14  H    0.222771
    15  H    0.221165
    16  H    0.236470
    17  H    0.236157
    18  H    0.238419
    19  H    0.238774
    20  H    0.525857
    21  H    0.304417
    22  H    0.273130
    23  H    0.264822
    24  N   -0.227133
    25  H    0.281319
    26  O   -0.114971
    27  O   -0.107205
    28  H    0.221339
    29  H    0.529398
    30  O   -0.801555
    31  O   -0.761044
    32  C    0.792742
    33  C   -0.507827
    34  C   -0.757992
    35  H    0.244479
    36  H    0.244785
    37  H    0.222006
    38  H    0.219129
    39  H    0.221948
 Sum of Mulliken charges =  -1.00000

 Dipole moment (field-independent basis, Debye):
    X=             -1.9007    Y=             -3.7511    Z=             -0.1672  Tot=              4.2085
 Quadrupole moment (field-independent basis, Debye-Ang):
   XX=           -189.7814   YY=           -136.7074   ZZ=           -128.7833
   XY=            -28.2835   XZ=             -0.5011   YZ=              0.2405

  Exact polarizability: 355.463 -18.235 325.092   0.103   7.188 181.124
 Approx polarizability: 281.243 -14.273 269.403  -0.076   5.927 158.091

                      1                      2                      3
                      A                      A                      A
 Frequencies --     14.2791                23.0150                27.3777
 Red. masses --      4.1694                 3.6036                 4.3289
 Frc consts  --      0.0005                 0.0011                 0.0019
 IR Inten    --      0.8599                 2.3118                 0.9008

                      4                      5                      6
                      A                      A                      A
 Frequencies --     35.8547                39.0912                49.0608
 Red. masses --      7.6175                 4.2888                 5.8261
 Frc consts  --      0.0058                 0.0039                 0.0083
 IR Inten    --      2.4081                 6.7325                 9.4252

                      7                      8                      9
                      A                      A                      A
 Frequencies --     57.3312                62.7068                66.1789
 Red. masses --      5.2645                 2.9543                 4.1448
 Frc consts  --      0.0102                 0.0068                 0.0107
 IR Inten    --      1.0272                 3.0488                 0.7496

                     10                     11                     12
                      A                      A                      A
 Frequencies --     67.8367                83.1444               107.4728
 Red. masses --      3.1920                 5.2899                 4.0578
 Frc consts  --      0.0087                 0.0215                 0.0276
 IR Inten    --      1.6930                14.2911                19.0745

                     13                     14                     15
                      A                      A                      A
 Frequencies --    127.0395               157.2996               161.3520
 Red. masses --      7.9919                 2.7597                 5.2397
 Frc consts  --      0.0760                 0.0402                 0.0804
 IR Inten    --     18.9493                17.2836                15.0972

                     16                     17                     18
                      A                      A                      A
 Frequencies --    172.6939               241.4838               247.2021
 Red. masses --      5.4110                 4.2362                 1.1529
 Frc consts  --      0.0951                 0.1455                 0.0415
 IR Inten    --      1.0521                 1.6590                 0.0262

                     19                     20                     21
                      A                      A                      A
 Frequencies --    248.8907               256.8054               262.9283
 Red. masses --      1.0896                 4.3693                 6.7782
 Frc consts  --      0.0398                 0.1698                 0.2761
 IR Inten    --      1.4824                 1.2284                11.1019

                     22                     23                     24
                      A                      A                      A
 Frequencies --    303.5046               345.7438               371.2592
 Red. masses --      3.8819                 4.7641                 7.0380
 Frc consts  --      0.2107                 0.3355                 0.5715
 IR Inten    --     12.4891                25.1291                 9.2712

                     25                     26                     27
                      A                      A                      A
 Frequencies --    411.9178               433.4471               459.9327
 Red. masses --      7.7947                 3.2237                 4.4670
 Frc consts  --      0.7792                 0.3568                 0.5567
 IR Inten    --      1.3401                 1.4288                 3.2824

                     28                     29                     30
                      A                      A                      A
 Frequencies --    522.7508               551.0148               553.0875
 Red. masses --      5.7502                 6.1503                 5.6973
 Frc consts  --      0.9258                 1.1002                 1.0269
 IR Inten    --     38.4739                 4.5870                 4.8366

                     31                     32                     33
                      A                      A                      A
 Frequencies --    579.6014               624.1991               643.9564
 Red. masses --      1.8988                 5.3129                 1.1895
 Frc consts  --      0.3758                 1.2196                 0.2906
 IR Inten    --      0.2234                18.8914               165.8621

                     34                     35                     36
                      A                      A                      A
 Frequencies --    654.4748               681.2614               701.3004
 Red. masses --      4.5116                 2.1785                 7.4486
 Frc consts  --      1.1386                 0.5957                 2.1584
 IR Inten    --     53.0973                35.7219                46.3325

                     37                     38                     39
                      A                      A                      A
 Frequencies --    759.2003               763.4008               766.7389
 Red. masses --      1.4976                 3.4862                 1.7212
 Frc consts  --      0.5086                 1.1970                 0.5962
 IR Inten    --     61.8826                62.7794                77.6189

                     40                     41                     42
                      A                      A                      A
 Frequencies --    775.7538               803.1704               819.3196
 Red. masses --      6.0222                 1.4094                 1.5122
 Frc consts  --      2.1353                 0.5357                 0.5981
 IR Inten    --      5.9877                60.6838                21.1183

                     43                     44                     45
                      A                      A                      A
 Frequencies --    823.0924               850.9455               886.4914
 Red. masses --      1.6321                 9.5515                 3.9406
 Frc consts  --      0.6515                 4.0750                 1.8246
 IR Inten    --    112.5883                38.3924                40.8850

                     46                     47                     48
                      A                      A                      A
 Frequencies --    906.7881               910.5353               929.2433
 Red. masses --      1.1534                 1.5930                 1.6764
 Frc consts  --      0.5588                 0.7782                 0.8529
 IR Inten    --      0.4160                47.3889                13.5060

                     49                     50                     51
                      A                      A                      A
 Frequencies --    944.8682               982.2723              1013.8316
 Red. masses --      1.3974                 4.1582                 6.0898
 Frc consts  --      0.7350                 2.3638                 3.6880
 IR Inten    --      0.5642                31.3333                 6.5209

                     52                     53                     54
                      A                      A                      A
 Frequencies --   1020.5650              1028.4246              1049.4212
 Red. masses --      1.3319                 1.6415                 4.2766
 Frc consts  --      0.8174                 1.0229                 2.7749
 IR Inten    --      0.7660                13.9866                19.1688

                     55                     56                     57
                      A                      A                      A
 Frequencies --   1082.9640              1109.1148              1113.1851
 Red. masses --      2.4277                 1.7851                 2.3464
 Frc consts  --      1.6775                 1.2938                 1.7131
 IR Inten    --      6.4177                 2.0661                15.4338

                     58                     59                     60
                      A                      A                      A
 Frequencies --   1120.7890              1132.3929              1157.9503
 Red. masses --      1.5999                 1.7861                 2.3431
 Frc consts  --      1.1841                 1.3494                 1.8511
 IR Inten    --     81.4838                13.3143                 2.6368

                     61                     62                     63
                      A                      A                      A
 Frequencies --   1179.5494              1181.5274              1196.5427
 Red. masses --      2.7057                 1.6091                 1.3632
 Frc consts  --      2.2180                 1.3235                 1.1499
 IR Inten    --     10.6891                 0.2395                 8.2704

                     64                     65                     66
                      A                      A                      A
 Frequencies --   1281.6275              1291.0149              1298.4122
 Red. masses --      1.1923                 1.1687                 1.6880
 Frc consts  --      1.1539                 1.1476                 1.6767
 IR Inten    --      0.3857                 0.1695               392.2620

                     67                     68                     69
                      A                      A                      A
 Frequencies --   1304.7917              1322.0521              1327.5536
 Red. masses --      1.8587                 1.9563                 1.0727
 Frc consts  --      1.8644                 2.0146                 1.1138
 IR Inten    --    202.2587                91.5468                 0.3773

                     70                     71                     72
                      A                      A                      A
 Frequencies --   1335.9623              1358.9487              1389.6258
 Red. masses --      1.7545                 1.7580                 4.5737
 Frc consts  --      1.8450                 1.9128                 5.2037
 IR Inten    --    127.1802               201.7382               458.9058

                     73                     74                     75
                      A                      A                      A
 Frequencies --   1421.0051              1421.5169              1432.5348
 Red. masses --      1.2870                 1.3072                 1.7269
 Frc consts  --      1.5311                 1.5563                 2.0880
 IR Inten    --      7.3839                35.4439                71.7497

                     76                     77                     78
                      A                      A                      A
 Frequencies --   1449.9229              1455.7705              1471.2373
 Red. masses --     12.8764                 1.3018                 2.9282
 Frc consts  --     15.9490                 1.6255                 3.7344
 IR Inten    --    746.5016               131.1000               284.4443

                     79                     80                     81
                      A                      A                      A
 Frequencies --   1483.6207              1489.7574              1502.4741
 Red. masses --      3.1625                 1.0609                 1.0397
 Frc consts  --      4.1013                 1.3872                 1.3828
 IR Inten    --     23.2983                 6.0084                11.2881

                     82                     83                     84
                      A                      A                      A
 Frequencies --   1504.5542              1508.1493              1512.1647
 Red. masses --      1.0400                 1.1188                 1.0816
 Frc consts  --      1.3871                 1.4994                 1.4572
 IR Inten    --     11.5015                74.3400                 2.0372

                     85                     86                     87
                      A                      A                      A
 Frequencies --   1531.5589              1535.6062              1557.9318
 Red. masses --      1.1089                 2.7935                 6.9155
 Frc consts  --      1.5326                 3.8811                 9.8894
 IR Inten    --     59.3506               155.1844               740.7148

                     88                     89                     90
                      A                      A                      A
 Frequencies --   1601.1089              1605.7658              1615.5865
 Red. masses --      2.8526                 6.4483                 2.3676
 Frc consts  --      4.3086                 9.7963                 3.6410
 IR Inten    --    290.8343              2542.4053               676.0030

                     91                     92                     93
                      A                      A                      A
 Frequencies --   1670.1578              1699.0785              1722.1808
 Red. masses --      6.7919                 4.5698                 2.1844
 Frc consts  --     11.1624                 7.7727                 3.8172
 IR Inten    --    193.3691                58.1516               504.7795

                     94                     95                     96
                      A                      A                      A
 Frequencies --   3068.4981              3075.8713              3077.2343
 Red. masses --      1.0586                 1.0456                 1.0501
 Frc consts  --      5.8724                 5.8285                 5.8585
 IR Inten    --     31.7741                14.0134               127.6167

                     97                     98                     99
                      A                      A                      A
 Frequencies --   3083.3713              3084.5568              3099.5085
 Red. masses --      1.0465                 1.0514                 1.1043
 Frc consts  --      5.8619                 5.8941                 6.2504
 IR Inten    --     59.2661                 7.2384                11.6336

                    100                    101                    102
                      A                      A                      A
 Frequencies --   3120.3215              3120.3698              3146.1340
 Red. masses --      1.1016                 1.1060                 1.1038
 Frc consts  --      6.3196                 6.3450                 6.4375
 IR Inten    --      2.8102                59.9153                95.4274

                    103                    104                    105
                      A                      A                      A
 Frequencies --   3153.9969              3155.2598              3158.8147
 Red. masses --      1.1024                 1.1022                 1.1036
 Frc consts  --      6.4610                 6.4653                 6.4881
 IR Inten    --     51.8098                48.7938                57.0826

                    106                    107                    108
                      A                      A                      A
 Frequencies --   3232.9068              3235.8704              3251.2764
 Red. masses --      1.0899                 1.0898                 1.0945
 Frc consts  --      6.7114                 6.7230                 6.8164
 IR Inten    --    462.1408               676.2577                 5.7369

                    109                    110                    111
                      A                      A                      A
 Frequencies --   3281.6531              3324.0073              3329.7705
 Red. masses --      1.0948                 1.0917                 1.0869
 Frc consts  --      6.9464                 7.1069                 7.0999
 IR Inten    --      7.1925                52.3812              1451.5300

 - Thermochemistry -
 -------------------
 Temperature   298.150 Kelvin.  Pressure   1.00000 Atm.
 Atom     1 has atomic number  6 and mass  12.00000

 Molecular mass:   296.12465 amu.
 Principal axes and moments of inertia in atomic units:
                           1         2         3
     Eigenvalues --  4372.23931********************
           X            0.99991  -0.01323  -0.00098
           Y            0.01323   0.99991  -0.00057
           Z            0.00098   0.00056   1.00000
 This molecule is an asymmetric top.
 Rotational symmetry number  1.
 Warning -- assumption of classical behavior for rotation
           may cause significant error
 Rotational temperatures (Kelvin)      0.01981     0.00668     0.00502
 Rotational constants (GHZ):           0.41277     0.13916     0.10455
 Zero-point vibrational energy     823961.9 (Joules/Mol)
                                  196.93161 (Kcal/Mol)
 Warning -- explicit consideration of  31 degrees of freedom as
           vibrations may cause significant error
 Vibrational temperatures:     20.54    33.11    39.39    51.59    56.24
          (Kelvin)             70.59    82.49    90.22    95.22    97.60
                              119.63   154.63   182.78   226.32   232.15
                              248.47   347.44   355.67   358.10   369.49
                              378.29   436.67   497.45   534.16   592.66
                              623.63   661.74   752.12   792.79   795.77
                              833.92   898.08   926.51   941.64   980.18
                             1009.01  1092.32  1098.36  1103.16  1116.14
                             1155.58  1178.82  1184.24  1224.32  1275.46
                             1304.66  1310.06  1336.97  1359.45  1413.27
                             1458.68  1468.36  1479.67  1509.88  1558.14
                             1595.77  1601.62  1612.56  1629.26  1666.03
                             1697.11  1699.95  1721.56  1843.97  1857.48
                             1868.12  1877.30  1902.14  1910.05  1922.15
                             1955.22  1999.36  2044.51  2045.24  2061.10
                             2086.11  2094.53  2116.78  2134.60  2143.43
                             2161.72  2164.72  2169.89  2175.66  2203.57
                             2209.39  2241.51  2303.64  2310.34  2324.47
                             2402.98  2444.59  2477.83  4414.88  4425.49
                             4427.45  4436.28  4437.98  4459.50  4489.44
                             4489.51  4526.58  4537.89  4539.71  4544.82
                             4651.43  4655.69  4677.86  4721.56  4782.50
                             4790.79

 Zero-point correction=                           0.313831 (Hartree/Particle)
 Thermal correction to Energy=                    0.336399
 Thermal correction to Enthalpy=                  0.337343
 Thermal correction to Gibbs Free Energy=         0.256088
 Sum of electronic and zero-point Energies=          -1046.015318
 Sum of electronic and thermal Energies=             -1045.992750
 Sum of electronic and thermal Enthalpies=           -1045.991806
 Sum of electronic and thermal Free Energies=        -1046.073061

                     E (Thermal)             CV                S
                      KCal/Mol        Cal/Mol-Kelvin    Cal/Mol-Kelvin
 Total                  211.093             78.475            171.016
 Electronic               0.000              0.000              0.000
 Translational            0.889              2.981             42.954
 Rotational               0.889              2.981             35.236
 Vibrational            209.316             72.513             92.826
 Vibration     1          0.593              1.986              7.303
 Vibration     2          0.593              1.985              6.355
 Vibration     3          0.593              1.984              6.011
 Vibration     4          0.594              1.982              5.476
 Vibration     5          0.594              1.981              5.305
 Vibration     6          0.595              1.978              4.855
 Vibration     7          0.596              1.975              4.547
 Vibration     8          0.597              1.972              4.370
 Vibration     9          0.598              1.970              4.264
 Vibration    10          0.598              1.970              4.215
 Vibration    11          0.600              1.961              3.815
 Vibration    12          0.606              1.943              3.314
 Vibration    13          0.611              1.926              2.990
 Vibration    14          0.621              1.894              2.582
 Vibration    15          0.622              1.890              2.534
 Vibration    16          0.626              1.876              2.406
 Vibration    17          0.658              1.777              1.792
 Vibration    18          0.661              1.767              1.750
 Vibration    19          0.662              1.765              1.738
 Vibration    20          0.666              1.751              1.683
 Vibration    21          0.670              1.741              1.642
 Vibration    22          0.695              1.667              1.398
 Vibration    23          0.724              1.584              1.186
 Vibration    24          0.743              1.531              1.075
 Vibration    25          0.776              1.444              0.920
 Vibration    26          0.794              1.397              0.847
 Vibration    27          0.818              1.339              0.766
 Vibration    28          0.878              1.200              0.604
 Vibration    29          0.906              1.137              0.542
 Vibration    30          0.908              1.133              0.538
 Vibration    31          0.936              1.075              0.486

 Normal termination of Gaussian 09 at Tue Feb 19 11:52:29 2019.
