 Gaussian 09, Revision E.01,

 ----------------------------------------------------------------------
 # M062X/Gen 6D SCF=Tight INT(grid=ultrafine) OPT IOP(2/17=4) maxdisk=2
 684354560
 ----------------------------------------------------------------------

 ----------------------------
 3Nitro_EtO.M062X_6-31pGd_opt
 ----------------------------
 Symbolic Z-matrix:
 Charge = -1 Multiplicity = 1

 SCF Done:  E(RM062X) =  -1046.25340277     A.U. after   16 cycles
 SCF Done:  E(RM062X) =  -1046.25348502     A.U. after   13 cycles
 SCF Done:  E(RM062X) =  -1046.25333155     A.U. after   15 cycles
 SCF Done:  E(RM062X) =  -1046.25348125     A.U. after   14 cycles
 SCF Done:  E(RM062X) =  -1046.25348042     A.U. after   13 cycles
 SCF Done:  E(RM062X) =  -1046.25349976     A.U. after   13 cycles
 SCF Done:  E(RM062X) =  -1046.25350183     A.U. after   11 cycles
 SCF Done:  E(RM062X) =  -1046.25350303     A.U. after   12 cycles
 SCF Done:  E(RM062X) =  -1046.25350400     A.U. after   11 cycles
 SCF Done:  E(RM062X) =  -1046.25350450     A.U. after   10 cycles
 SCF Done:  E(RM062X) =  -1046.25350698     A.U. after   10 cycles
 SCF Done:  E(RM062X) =  -1046.25350704     A.U. after   11 cycles
 SCF Done:  E(RM062X) =  -1046.25350703     A.U. after    9 cycles
 SCF Done:  E(RM062X) =  -1046.25350698     A.U. after   12 cycles
 SCF Done:  E(RM062X) =  -1046.25350695     A.U. after   11 cycles
 SCF Done:  E(RM062X) =  -1046.25350693     A.U. after   11 cycles
 SCF Done:  E(RM062X) =  -1046.25350690     A.U. after    9 cycles
 SCF Done:  E(RM062X) =  -1046.25350688     A.U. after    9 cycles
 SCF Done:  E(RM062X) =  -1046.25350690     A.U. after   10 cycles
 Optimization completed.
    -- Stationary point found.
 Normal termination of Gaussian 09 at Fri Feb 22 17:11:15 2019.
 Gaussian 09:  ES64L-G09RevE.01 30-Nov-2015

 ----------------------------------------------------------------------
 # M062X/Gen 6D SCF=Tight INT(grid=ultrafine) Freq=Noraman maxdisk=2684
 354560 geom=check guess=read IOP(2/17=4)
 ----------------------------------------------------------------------

 ----------------------------
 3Nitro_EtO.M062X_6-31pGd_opt
 ----------------------------
 Structure from the checkpoint file:  "3Nitro_EtO.M062X_6-31pGd_opt.chk"
 Charge = -1 Multiplicity = 1

                         Standard orientation:
 ---------------------------------------------------------------------
 Center     Atomic      Atomic             Coordinates (Angstroms)
 Number     Number       Type             X           Y           Z
 ---------------------------------------------------------------------
      1          6           0       -4.470167    3.909562   -0.092967
      2          6           0       -3.729204    2.593009   -0.315264
      3          6           0       -2.287053    2.667041    0.176297
      4          7           0       -1.640206    1.386687    0.006475
      5          6           0       -0.287788    1.287528    0.036735
      6          8           0        0.466473    2.259936    0.112837
      7          7           0        0.151358   -0.026723   -0.039776
      8          6           0        1.456538   -0.471494   -0.043959
      9          6           0        2.588609    0.361873    0.008458
     10          6           0        1.645921   -1.869986   -0.108946
     11          6           0        2.920370   -2.418823   -0.120549
     12          6           0        4.054476   -1.609733   -0.068651
     13          6           0        3.842733   -0.237942   -0.005585
     14          1           0       -5.500800    3.855483   -0.458935
     15          1           0       -3.971294    4.735741   -0.613741
     16          1           0       -3.724207    2.333022   -1.380769
     17          1           0       -4.243205    1.771666    0.198422
     18          1           0       -2.270686    2.980020    1.233608
     19          1           0       -1.723544    3.423064   -0.382467
     20          1           0       -2.228304    0.536412    0.056031
     21          1           0        2.480587    1.436230    0.058681
     22          1           0        0.762156   -2.503230   -0.148326
     23          1           0        3.033381   -3.498112   -0.170853
     24          7           0        5.027786    0.637594    0.049008
     25          1           0        5.058977   -2.012423   -0.076226
     26          8           0        4.857025    1.842787    0.098587
     27          8           0        6.131593    0.107927    0.041529
     28          1           0       -4.506833    4.164586    0.972734
     29          1           0       -0.570245   -0.777840   -0.086265
     30          8           0       -1.577210   -2.191067   -0.137598
     31          8           0       -3.361733   -0.857266    0.147301
     32          6           0       -2.813450   -1.977702    0.007581
     33          6           0       -3.711211   -3.225959    0.009054
     34          6           0       -5.195336   -2.931030    0.187230
     35          1           0       -3.341708   -3.887345    0.802577
     36          1           0       -3.524186   -3.757761   -0.932151
     37          1           0       -5.373527   -2.407525    1.131010
     38          1           0       -5.787999   -3.854168    0.180659
     39          1           0       -5.556936   -2.277324   -0.611792
 ---------------------------------------------------------------------

 SCF Done:  E(RM062X) =  -1046.25350690     A.U. after    1 cycles

 The electronic state is 1-A.
 Alpha  occ. eigenvalues --  -19.58905 -19.58728 -19.48915 -19.47145 -19.46897
 Alpha  occ. eigenvalues --  -14.91881 -14.66549 -14.64815 -10.55917 -10.51929
 Alpha  occ. eigenvalues --  -10.51278 -10.50691 -10.47111 -10.47040 -10.46966
 Alpha  occ. eigenvalues --  -10.46066 -10.45952 -10.45391 -10.44631 -10.43151
 Alpha  occ. eigenvalues --  -10.43096  -1.27358  -1.08600  -1.05095  -1.03350
 Alpha  occ. eigenvalues --   -0.93969  -0.93438  -0.90662  -0.87624  -0.79926
 Alpha  occ. eigenvalues --   -0.78327  -0.75193  -0.74785  -0.69333  -0.67709
 Alpha  occ. eigenvalues --   -0.61804  -0.61513  -0.58693  -0.57769  -0.55910
 Alpha  occ. eigenvalues --   -0.53866  -0.52915  -0.51425  -0.50087  -0.47926
 Alpha  occ. eigenvalues --   -0.46810  -0.45873  -0.44774  -0.42350  -0.42200
 Alpha  occ. eigenvalues --   -0.41706  -0.41017  -0.40840  -0.40707  -0.39120
 Alpha  occ. eigenvalues --   -0.37540  -0.37218  -0.36083  -0.34663  -0.34497
 Alpha  occ. eigenvalues --   -0.34242  -0.33766  -0.32894  -0.32671  -0.31096
 Alpha  occ. eigenvalues --   -0.30684  -0.29770  -0.29416  -0.28977  -0.28645
 Alpha  occ. eigenvalues --   -0.28364  -0.27202  -0.22638  -0.22528  -0.20086
 Alpha  occ. eigenvalues --   -0.19629  -0.19305  -0.19162  -0.15711
 Alpha virt. eigenvalues --    0.04475   0.10186   0.10311   0.11072   0.11629
 Alpha virt. eigenvalues --    0.12013   0.12383   0.12573   0.13168   0.13658
 Alpha virt. eigenvalues --    0.13915   0.14139   0.14879   0.15366   0.15568

 Mulliken charges:
               1
     1  C   -0.766247
     2  C   -0.317873
     3  C   -0.173032
     4  N   -0.683150
     5  C    0.668734
     6  O   -0.609211
     7  N   -0.714005
     8  C    0.474940
     9  C    0.221390
    10  C   -0.725454
    11  C   -0.473101
    12  C    0.002379
    13  C   -0.185843
    14  H    0.196625
    15  H    0.199647
    16  H    0.216278
    17  H    0.250297
    18  H    0.194752
    19  H    0.223305
    20  H    0.516767
    21  H    0.318040
    22  H    0.278168
    23  H    0.197177
    24  N   -0.343271
    25  H    0.232581
    26  O   -0.034711
    27  O   -0.059915
    28  H    0.201707
    29  H    0.514241
    30  O   -0.676381
    31  O   -0.629484
    32  C    0.698271
    33  C   -0.492951
    34  C   -0.741551
    35  H    0.208743
    36  H    0.209003
    37  H    0.214894
    38  H    0.172800
    39  H    0.215443
 Sum of Mulliken charges =  -1.00000

 Dipole moment (field-independent basis, Debye):
    X=             -2.0646    Y=             -1.5227    Z=             -0.2524  Tot=              2.5778
 Quadrupole moment (field-independent basis, Debye-Ang):
   XX=           -200.6815   YY=           -148.5817   ZZ=           -130.0425
   XY=            -20.7145   XZ=             -0.2291   YZ=             -1.0247

  Exact polarizability: 281.524 -15.155 228.102  -0.843   5.159 123.865
 Approx polarizability: 287.974 -17.978 275.086  -1.134   7.254 161.632

                      1                      2                      3
                      A                      A                      A
 Frequencies --     11.3205                13.5801                30.0038
 Red. masses --      2.1007                 3.9615                 4.2698
 Frc consts  --      0.0002                 0.0004                 0.0023
 IR Inten    --      0.6415                 0.0462                 0.8910

                      4                      5                      6
                      A                      A                      A
 Frequencies --     32.0192                40.5802                45.6045
 Red. masses --      2.2523                 8.3682                 5.3276
 Frc consts  --      0.0014                 0.0081                 0.0065
 IR Inten    --      0.0410                 0.7794                 0.7118

                      7                      8                      9
                      A                      A                      A
 Frequencies --     55.9638                61.0417                62.6794
 Red. masses --      4.1097                 5.1730                 5.4099
 Frc consts  --      0.0076                 0.0114                 0.0125
 IR Inten    --      2.5204                 1.3141                 1.8432

                     10                     11                     12
                      A                      A                      A
 Frequencies --     75.2961                82.3852               109.0242
 Red. masses --      5.5371                 5.2950                 6.2673
 Frc consts  --      0.0185                 0.0212                 0.0439
 IR Inten    --      2.5595                 5.9375                 5.6830

                     13                     14                     15
                      A                      A                      A
 Frequencies --    134.0070               157.4865               181.8341
 Red. masses --      6.5514                 3.9149                 5.6058
 Frc consts  --      0.0693                 0.0572                 0.1092
 IR Inten    --      7.2970                16.4065                 0.8878

                     16                     17                     18
                      A                      A                      A
 Frequencies --    194.3921               215.7944               236.3395
 Red. masses --      3.4960                 1.1271                 1.1902
 Frc consts  --      0.0778                 0.0309                 0.0392
 IR Inten    --     12.1854                 0.4180                 0.3773

                     19                     20                     21
                      A                      A                      A
 Frequencies --    245.9619               257.5227               263.6821
 Red. masses --      4.6892                 4.0384                 6.6203
 Frc consts  --      0.1671                 0.1578                 0.2712
 IR Inten    --      0.7323                 1.4476                 7.1365

                     22                     23                     24
                      A                      A                      A
 Frequencies --    297.0117               348.4163               373.7356
 Red. masses --      3.9728                 4.7254                 7.0497
 Frc consts  --      0.2065                 0.3380                 0.5802
 IR Inten    --     12.3786                15.1755                 8.9688

                     25                     26                     27
                      A                      A                      A
 Frequencies --    409.6684               440.4610               461.9278
 Red. masses --      7.9342                 3.3914                 4.4584
 Frc consts  --      0.7845                 0.3877                 0.5605
 IR Inten    --      1.8329                 0.6018                 1.4783

                     28                     29                     30
                      A                      A                      A
 Frequencies --    521.8892               551.8300               560.4942
 Red. masses --      5.7288                 6.9602                 5.2119
 Frc consts  --      0.9193                 1.2488                 0.9647
 IR Inten    --     31.9324                 2.1722                 3.2262

                     31                     32                     33
                      A                      A                      A
 Frequencies --    583.3805               626.7027               657.6294
 Red. masses --      1.9723                 5.7970                 4.5962
 Frc consts  --      0.3955                 1.3414                 1.1711
 IR Inten    --      0.5352                12.3438                33.7846

                     34                     35                     36
                      A                      A                      A
 Frequencies --    691.6488               702.5279               751.7292
 Red. masses --      2.5837                 7.4234                 1.1294
 Frc consts  --      0.7282                 2.1586                 0.3760
 IR Inten    --     10.6929                23.7115                 1.7035

                     37                     38                     39
                      A                      A                      A
 Frequencies --    762.3702               765.6601               775.5177
 Red. masses --      3.0964                 3.6776                 5.7717
 Frc consts  --      1.0603                 1.2702                 2.0452
 IR Inten    --     53.0069                29.0621                13.5684

                     40                     41                     42
                      A                      A                      A
 Frequencies --    815.1891               819.9269               825.3526
 Red. masses --      1.5062                 1.5437                 1.4399
 Frc consts  --      0.5897                 0.6114                 0.5779
 IR Inten    --     12.3389                12.1051                 8.1048

                     43                     44                     45
                      A                      A                      A
 Frequencies --    857.4435               888.1388               896.6240
 Red. masses --      9.7308                 3.9475                 1.1824
 Frc consts  --      4.2151                 1.8346                 0.5601
 IR Inten    --     12.3046                49.1423                 3.6861

                     46                     47                     48
                      A                      A                      A
 Frequencies --    922.9039               933.1049               950.9982
 Red. masses --      1.7061                 1.4096                 1.2852
 Frc consts  --      0.8562                 0.7231                 0.6848
 IR Inten    --     10.9605                 0.1130                81.3307

                     49                     50                     51
                      A                      A                      A
 Frequencies --    964.8706               981.2663              1011.7423
 Red. masses --      1.1642                 3.8659                 6.2555
 Frc consts  --      0.6386                 2.1932                 3.7727
 IR Inten    --     38.6057                20.2000                17.9862

                     52                     53                     54
                      A                      A                      A
 Frequencies --   1021.9205              1022.7830              1046.7368
 Red. masses --      1.6276                 1.3202                 3.8610
 Frc consts  --      1.0015                 0.8137                 2.4924
 IR Inten    --      3.4076                 6.1350                16.4506

                     55                     56                     57
                      A                      A                      A
 Frequencies --   1080.6326              1107.5544              1112.4629
 Red. masses --      2.5802                 1.7752                 2.3853
 Frc consts  --      1.7752                 1.2830                 1.7393
 IR Inten    --      4.7111                 0.7941                 3.2383

                     58                     59                     60
                      A                      A                      A
 Frequencies --   1120.6351              1132.0128              1154.7902
 Red. masses --      1.6069                 1.7775                 2.1662
 Frc consts  --      1.1890                 1.3420                 1.7020
 IR Inten    --     29.1348                 8.9472                 0.3725

                     61                     62                     63
                      A                      A                      A
 Frequencies --   1181.0254              1194.0658              1208.2437
 Red. masses --      1.7902                 2.4645                 1.4177
 Frc consts  --      1.4712                 2.0703                 1.2194
 IR Inten    --     13.3536                 8.9538                 1.6834

                     64                     65                     66
                      A                      A                      A
 Frequencies --   1274.0478              1286.3294              1302.5641
 Red. masses --      1.2121                 1.1873                 1.4919
 Frc consts  --      1.1592                 1.1575                 1.4914
 IR Inten    --     19.0686                 0.2568                82.0007

                     67                     68                     69
                      A                      A                      A
 Frequencies --   1311.0937              1323.5100              1331.1339
 Red. masses --      1.8467                 1.2413                 1.8548
 Frc consts  --      1.8703                 1.2811                 1.9364
 IR Inten    --    305.2959                41.4784                50.1020

                     70                     71                     72
                      A                      A                      A
 Frequencies --   1333.2214              1371.0448              1401.5772
 Red. masses --      1.7649                 1.8865                 3.7179
 Frc consts  --      1.8483                 2.0894                 4.3032
 IR Inten    --     38.3539               223.6358               246.4353

                     73                     74                     75
                      A                      A                      A
 Frequencies --   1421.4711              1424.1171              1434.2468
 Red. masses --      1.3074                 1.3293                 1.6473
 Frc consts  --      1.5564                 1.5885                 1.9965
 IR Inten    --     12.5046                16.8086                 7.3046

                     76                     77                     78
                      A                      A                      A
 Frequencies --   1467.7859              1472.7127              1490.1239
 Red. masses --     11.3293                 4.3411                 1.2730
 Frc consts  --     14.3807                 5.5473                 1.6655
 IR Inten    --    577.8551               153.6277                19.0517

                     79                     80                     81
                      A                      A                      A
 Frequencies --   1491.1787              1510.7702              1515.0780
 Red. masses --      2.6769                 1.0400                 1.0634
 Frc consts  --      3.5071                 1.3985                 1.4382
 IR Inten    --      8.4377                 4.8662                 4.1954

                     82                     83                     84
                      A                      A                      A
 Frequencies --   1522.4719              1522.5856              1528.4264
 Red. masses --      1.0969                 1.0414                 1.0711
 Frc consts  --      1.4979                 1.4224                 1.4742
 IR Inten    --     50.1517                 8.4915                 1.2973

                     85                     86                     87
                      A                      A                      A
 Frequencies --   1540.3584              1552.1428              1620.1653
 Red. masses --      1.0892                 2.9879                 2.9384
 Frc consts  --      1.5226                 4.2410                 4.5444
 IR Inten    --     15.3623               212.6993               107.7700

                     88                     89                     90
                      A                      A                      A
 Frequencies --   1642.3315              1671.4934              1686.0787
 Red. masses --      2.5314                 8.2193                 2.5096
 Frc consts  --      4.0228                13.5299                 4.2035
 IR Inten    --     52.7726               716.7416               222.7195

                     91                     92                     93
                      A                      A                      A
 Frequencies --   1711.7623              1720.9700              1791.8976
 Red. masses --      6.4251                 4.2641                 3.2122
 Frc consts  --     11.0922                 7.4409                 6.0769
 IR Inten    --    103.4366               820.8830               365.9486

                     94                     95                     96
                      A                      A                      A
 Frequencies --   3009.4886              3059.0174              3064.3851
 Red. masses --      1.0727                 1.0916                 1.0362
 Frc consts  --      5.7241                 6.0185                 5.7332
 IR Inten    --     86.7040              1076.9068                50.7098

                     97                     98                     99
                      A                      A                      A
 Frequencies --   3067.0452              3074.9350              3079.3759
 Red. masses --      1.0503                 1.0568                 1.0612
 Frc consts  --      5.8213                 5.8872                 5.9291
 IR Inten    --     14.0451                25.9562                19.4791

                    100                    101                    102
                      A                      A                      A
 Frequencies --   3099.9009              3107.3073              3116.0359
 Red. masses --      1.0915                 1.1013                 1.1003
 Frc consts  --      6.1799                 6.2652                 6.2944
 IR Inten    --     41.2228                15.3768                 4.6887

                    103                    104                    105
                      A                      A                      A
 Frequencies --   3137.5557              3138.2385              3139.1696
 Red. masses --      1.1029                 1.0958                 1.1013
 Frc consts  --      6.3971                 6.3583                 6.3942
 IR Inten    --     72.0002                48.2385                47.2971

                    106                    107                    108
                      A                      A                      A
 Frequencies --   3160.6124              3214.3376              3224.9688
 Red. masses --      1.1022                 1.0894                 1.0906
 Frc consts  --      6.4870                 6.6318                 6.6831
 IR Inten    --     37.8547                21.5100              1182.7067

                    109                    110                    111
                      A                      A                      A
 Frequencies --   3228.3238              3277.6501              3302.4456
 Red. masses --      1.0943                 1.0931                 1.0917
 Frc consts  --      6.7195                 6.9191                 7.0152
 IR Inten    --    327.6354                 0.4462                31.5054

 - Thermochemistry -
 -------------------
 Temperature   298.150 Kelvin.  Pressure   1.00000 Atm.
 Atom     1 has atomic number  6 and mass  12.00000

 Molecular mass:   296.12465 amu.
 Principal axes and moments of inertia in atomic units:
                           1         2         3
     Eigenvalues --  4382.04089********************
           X            0.99990  -0.01429  -0.00035
           Y            0.01429   0.99990  -0.00120
           Z            0.00037   0.00119   1.00000
 This molecule is an asymmetric top.
 Rotational symmetry number  1.
 Warning -- assumption of classical behavior for rotation
           may cause significant error
 Rotational temperatures (Kelvin)      0.01977     0.00684     0.00511
 Rotational constants (GHZ):           0.41185     0.14262     0.10647
 Zero-point vibrational energy     826697.5 (Joules/Mol)
                                  197.58544 (Kcal/Mol)
 Warning -- explicit consideration of  31 degrees of freedom as
           vibrations may cause significant error
 Vibrational temperatures:     16.29    19.54    43.17    46.07    58.39
          (Kelvin)             65.61    80.52    87.83    90.18   108.33
                              118.53   156.86   192.81   226.59   261.62
                              279.69   310.48   340.04   353.88   370.52
                              379.38   427.33   501.29   537.72   589.42
                              633.72   664.61   750.88   793.96   806.43
                              839.35   901.68   946.18   995.13  1010.78
                             1081.57  1096.88  1101.61  1115.80  1172.87
                             1179.69  1187.50  1233.67  1277.83  1290.04
                             1327.85  1342.53  1368.27  1388.23  1411.82
                             1455.67  1470.31  1471.55  1506.02  1554.79
                             1593.52  1600.58  1612.34  1628.71  1661.48
                             1699.23  1717.99  1738.39  1833.07  1850.74
                             1874.10  1886.37  1904.23  1915.20  1918.21
                             1972.63  2016.55  2045.18  2048.98  2063.56
                             2111.81  2118.90  2143.95  2145.47  2173.66
                             2179.86  2190.49  2190.66  2199.06  2216.23
                             2233.18  2331.05  2362.95  2404.90  2425.89
                             2462.84  2476.09  2578.14  4329.98  4401.24
                             4408.96  4412.79  4424.14  4430.53  4460.06
                             4470.72  4483.28  4514.24  4515.22  4516.56
                             4547.41  4624.71  4640.01  4644.83  4715.80
                             4751.48

 Zero-point correction=                           0.314872 (Hartree/Particle)
 Thermal correction to Energy=                    0.337320
 Thermal correction to Enthalpy=                  0.338264
 Thermal correction to Gibbs Free Energy=         0.256551
 Sum of electronic and zero-point Energies=          -1045.938634
 Sum of electronic and thermal Energies=             -1045.916187
 Sum of electronic and thermal Enthalpies=           -1045.915243
 Sum of electronic and thermal Free Energies=        -1045.996956

                     E (Thermal)             CV                S
                      KCal/Mol        Cal/Mol-Kelvin    Cal/Mol-Kelvin
 Total                  211.671             77.735            171.979
 Electronic               0.000              0.000              0.000
 Translational            0.889              2.981             42.954
 Rotational               0.889              2.981             35.196
 Vibrational            209.894             71.773             93.829
 Vibration     1          0.593              1.987              7.765
 Vibration     2          0.593              1.986              7.403
 Vibration     3          0.594              1.984              5.829
 Vibration     4          0.594              1.983              5.700
 Vibration     5          0.594              1.981              5.231
 Vibration     6          0.595              1.979              4.999
 Vibration     7          0.596              1.975              4.595
 Vibration     8          0.597              1.973              4.423
 Vibration     9          0.597              1.972              4.371
 Vibration    10          0.599              1.965              4.010
 Vibration    11          0.600              1.961              3.833
 Vibration    12          0.606              1.942              3.286
 Vibration    13          0.613              1.919              2.888
 Vibration    14          0.621              1.894              2.580
 Vibration    15          0.630              1.864              2.310
 Vibration    16          0.635              1.848              2.186
 Vibration    17          0.645              1.817              1.994
 Vibration    18          0.655              1.785              1.830
 Vibration    19          0.660              1.769              1.759
 Vibration    20          0.667              1.750              1.679
 Vibration    21          0.670              1.739              1.637
 Vibration    22          0.691              1.679              1.434
 Vibration    23          0.726              1.578              1.173
 Vibration    24          0.745              1.526              1.064
 Vibration    25          0.774              1.449              0.928
 Vibration    26          0.800              1.382              0.825
 Vibration    27          0.820              1.335              0.761
 Vibration    28          0.877              1.202              0.606
 Vibration    29          0.907              1.136              0.540
 Vibration    30          0.916              1.117              0.523
 Vibration    31          0.940              1.067              0.479

 Optimization completed on the basis of negligible forces.
    -- Stationary point found.
 Normal termination of Gaussian 09 at Fri Feb 22 17:54:07 2019.
