 Gaussian 09, Revision E.01,

 ----------------------------------------------------------------------
 # M062X/Gen 6D SCF=Tight INT(grid=ultrafine) OPT IOP(2/17=4) SCRF=(SMD
 ,Solvent=h2o) maxdisk=2684354560
 ----------------------------------------------------------------------

 -----------------------------
 34TFM.M062X_6-31pGd_opt_water
 -----------------------------
 Symbolic Z-matrix:
 Charge =  0 Multiplicity = 1

 SCF Done:  E(RM062X) =  -1247.91491618     A.U. after   15 cycles
 SCF Done:  E(RM062X) =  -1247.93280248     A.U. after   13 cycles
 SCF Done:  E(RM062X) =  -1247.93232838     A.U. after   13 cycles
 SCF Done:  E(RM062X) =  -1247.93399751     A.U. after    9 cycles
 SCF Done:  E(RM062X) =  -1247.93421436     A.U. after   11 cycles
 SCF Done:  E(RM062X) =  -1247.93424944     A.U. after   11 cycles
 SCF Done:  E(RM062X) =  -1247.93425456     A.U. after    9 cycles
 SCF Done:  E(RM062X) =  -1247.93425025     A.U. after   10 cycles
 SCF Done:  E(RM062X) =  -1247.93425865     A.U. after    9 cycles
 SCF Done:  E(RM062X) =  -1247.93426038     A.U. after    9 cycles
 SCF Done:  E(RM062X) =  -1247.93702290     A.U. after   10 cycles
 SCF Done:  E(RM062X) =  -1247.93702354     A.U. after    9 cycles
 SCF Done:  E(RM062X) =  -1247.93702417     A.U. after   10 cycles
 SCF Done:  E(RM062X) =  -1247.93702457     A.U. after    9 cycles
 SCF Done:  E(RM062X) =  -1247.93702507     A.U. after    9 cycles
 SCF Done:  E(RM062X) =  -1247.93702551     A.U. after   10 cycles
 SCF Done:  E(RM062X) =  -1247.93702592     A.U. after    9 cycles
 SCF Done:  E(RM062X) =  -1247.93702597     A.U. after    9 cycles
 Optimization completed.
    -- Stationary point found.
 Normal termination of Gaussian 09 at Tue Oct 30 13:41:13 2018.
 Gaussian 09:  ES64L-G09RevE.01 30-Nov-2015

 ----------------------------------------------------------------------
 # M062X/Gen 6D SCF=Tight INT(grid=ultrafine) OPT IOP(2/17=4) SCRF=(SMD
 ,Solvent=h2o) Freq=Noraman maxdisk=2684354560 geom=check guess=read IO
 P(2/17=4)
 ----------------------------------------------------------------------

 -----------------------------
 34TFM.M062X_6-31pGd_opt_water
 -----------------------------
 Structure from the checkpoint file:  "34TFM.M062X_6-31pGd_opt_water.chk"
 Charge =  0 Multiplicity = 1

 SCF Done:  E(RM062X) =  -1247.93702597     A.U. after    1 cycles
 Optimization completed.
    -- Stationary point found.
 Normal termination of Gaussian 09 at Tue Oct 30 13:42:13 2018.

 ----------------------------------------------------------------------
 #N Geom=AllCheck Guess=TCheck SCRF=Check Test GenChk RM062X/ChkBas Fre
 q
 ----------------------------------------------------------------------

 Structure from the checkpoint file:  "34TFM.M062X_6-31pGd_opt_water.chk"
 -----------------------------
 34TFM.M062X_6-31pGd_opt_water
 -----------------------------
 Charge =  0 Multiplicity = 1

                         Standard orientation:
 ---------------------------------------------------------------------
 Center     Atomic      Atomic             Coordinates (Angstroms)
 Number     Number       Type             X           Y           Z
 ---------------------------------------------------------------------
      1          6           0       -7.757322    0.468713    0.044879
      2          6           0       -6.555640   -0.467558   -0.028938
      3          6           0       -5.250178    0.309558    0.042827
      4          7           0       -4.115066   -0.601494   -0.041219
      5          6           0       -2.848549   -0.144159    0.017823
      6          8           0       -2.582681    1.055846    0.179120
      7          7           0       -1.875822   -1.120825   -0.109397
      8          6           0       -0.493594   -0.967082   -0.063217
      9          6           0        0.157374    0.276257   -0.077329
     10          6           0        0.281747   -2.133407   -0.024533
     11          6           0        1.664512   -2.060500    0.013627
     12          6           0        2.320521   -0.829555    0.015064
     13          6           0        1.545763    0.338799   -0.041682
     14          1           0       -8.694832   -0.092955   -0.003662
     15          1           0       -7.748433    1.183232   -0.785521
     16          1           0       -7.753043    1.038434    0.980623
     17          1           0       -6.583867   -1.040629   -0.963936
     18          1           0       -6.590987   -1.190149    0.795410
     19          1           0       -5.194754    0.868771    0.983621
     20          1           0       -5.197663    1.036320   -0.776798
     21          1           0       -4.294439   -1.585617   -0.208898
     22          1           0       -2.199608   -2.081864   -0.171172
     23          1           0       -0.420785    1.186863   -0.122055
     24          1           0       -0.206525   -3.103754   -0.020078
     25          1           0        2.239617   -2.979207    0.048434
     26          6           0        2.160014    1.719603   -0.037209
     27          6           0        3.824584   -0.832724    0.041889
     28          9           0        4.336657    0.106966    0.858963
     29          9           0        4.368313   -0.622128   -1.175498
     30          9           0        4.310697   -2.011879    0.468009
     31          9           0        1.297690    2.656539   -0.463172
     32          9           0        3.240302    1.804829   -0.834032
     33          9           0        2.551628    2.099268    1.195306
 ---------------------------------------------------------------------

 SCF Done:  E(RM062X) =  -1247.93702597     A.U. after    1 cycles

 The electronic state is 1-A.
 Alpha  occ. eigenvalues --  -25.31143 -25.31082 -25.30992 -25.30905 -25.30790
 Alpha  occ. eigenvalues --  -25.30565 -19.62711 -14.81040 -14.79021 -10.82423
 Alpha  occ. eigenvalues --  -10.82252 -10.69825 -10.62760 -10.60557 -10.59663
 Alpha  occ. eigenvalues --  -10.58067 -10.57797 -10.57561 -10.57226 -10.54231
 Alpha  occ. eigenvalues --  -10.52981  -1.47934  -1.47412  -1.38628  -1.38258
 Alpha  occ. eigenvalues --   -1.38129  -1.37872  -1.18780  -1.07085  -1.03700
 Alpha  occ. eigenvalues --   -0.99482  -0.90547  -0.89865  -0.87687  -0.82992
 Alpha  occ. eigenvalues --   -0.81345  -0.78088  -0.74658  -0.74023  -0.70676
 Alpha  occ. eigenvalues --   -0.70221  -0.69950  -0.69453  -0.68953  -0.68654
 Alpha  occ. eigenvalues --   -0.67610  -0.65291  -0.63316  -0.59659  -0.58665
 Alpha  occ. eigenvalues --   -0.58589  -0.57813  -0.57708  -0.56089  -0.55721
 Alpha  occ. eigenvalues --   -0.55442  -0.54424  -0.53971  -0.53367  -0.52881
 Alpha  occ. eigenvalues --   -0.52489  -0.52476  -0.51938  -0.51735  -0.51115
 Alpha  occ. eigenvalues --   -0.50218  -0.48982  -0.47749  -0.46721  -0.45339
 Alpha  occ. eigenvalues --   -0.45266  -0.43305  -0.42045  -0.40094  -0.39936
 Alpha  occ. eigenvalues --   -0.39052  -0.36264  -0.33723  -0.33125  -0.28672
 Alpha virt. eigenvalues --   -0.01814  -0.00120   0.01497   0.02579   0.03021
 Alpha virt. eigenvalues --    0.03916   0.03931   0.04123   0.04716   0.05206
 Alpha virt. eigenvalues --    0.05630   0.05819   0.06769   0.06880   0.07462

 Mulliken charges:
               1
     1  C   -0.742999
     2  C   -0.393204
     3  C   -0.132189
     4  N   -0.674078
     5  C    0.945992
     6  O   -0.746941
     7  N   -0.649100
     8  C   -0.127414
     9  C    0.715493
    10  C   -1.202953
    11  C   -0.076980
    12  C   -1.031326
    13  C   -0.766905
    14  H    0.223912
    15  H    0.222690
    16  H    0.222472
    17  H    0.234588
    18  H    0.235585
    19  H    0.240205
    20  H    0.238179
    21  H    0.487695
    22  H    0.501318
    23  H    0.302279
    24  H    0.275320
    25  H    0.285038
    26  C    1.629955
    27  C    1.562814
    28  F   -0.293977
    29  F   -0.266156
    30  F   -0.331630
    31  F   -0.329126
    32  F   -0.292982
    33  F   -0.265575
 Sum of Mulliken charges =  -0.00000

 Dipole moment (field-independent basis, Debye):
    X=             -9.5456    Y=             -9.4294    Z=             -0.9086  Tot=             13.4483
 Quadrupole moment (field-independent basis, Debye-Ang):
   XX=           -109.0183   YY=           -111.6780   ZZ=           -124.1544
   XY=             13.6859   XZ=              2.6250   YZ=              0.0810

  Exact polarizability: 289.153  -3.704 228.935   1.740   1.517 151.209
 Approx polarizability: 230.543   0.369 201.763   1.832   1.222 136.605

                      1                      2                      3
                      A                      A                      A
 Frequencies --     16.7782                26.7578                42.6302
 Red. masses --      5.8941                 3.2196                 3.4527
 Frc consts  --      0.0010                 0.0014                 0.0037
 IR Inten    --      0.7271                11.6286                15.8619

                      4                      5                      6
                      A                      A                      A
 Frequencies --     52.7227                57.8861                63.2282
 Red. masses --      4.4047                 4.3941                 5.5690
 Frc consts  --      0.0072                 0.0087                 0.0131
 IR Inten    --     18.4073                 4.4671                 5.1267

                      7                      8                      9
                      A                      A                      A
 Frequencies --     88.5077                93.9636               125.9792
 Red. masses --     16.1681                 6.0800                 6.0608
 Frc consts  --      0.0746                 0.0316                 0.0567
 IR Inten    --      0.0475                 0.4879                 2.6794

                     10                     11                     12
                      A                      A                      A
 Frequencies --    138.2800               148.6277               166.9981
 Red. masses --      6.1250                 3.0757                14.3133
 Frc consts  --      0.0690                 0.0400                 0.2352
 IR Inten    --      2.0665                15.4785                 0.5439

                     13                     14                     15
                      A                      A                      A
 Frequencies --    205.1344               229.1275               237.0394
 Red. masses --      7.9463                 7.1270                 7.2632
 Frc consts  --      0.1970                 0.2205                 0.2404
 IR Inten    --      0.3996                 7.2998                 7.8696

                     16                     17                     18
                      A                      A                      A
 Frequencies --    243.1902               263.2331               316.6187
 Red. masses --      1.1361                 7.6866                 7.0418
 Frc consts  --      0.0396                 0.3138                 0.4159
 IR Inten    --      0.3263                 1.4305                 2.1889

                     19                     20                     21
                      A                      A                      A
 Frequencies --    338.1726               340.6763               347.0942
 Red. masses --     13.9307                 1.4179                 2.5193
 Frc consts  --      0.9386                 0.0970                 0.1788
 IR Inten    --      0.3721                71.4625                33.9983

                     22                     23                     24
                      A                      A                      A
 Frequencies --    383.9024               394.1954               414.7148
 Red. masses --      8.0653                 5.7140                 5.0230
 Frc consts  --      0.7003                 0.5231                 0.5090
 IR Inten    --      5.7045                32.2696                 4.3805

                     25                     26                     27
                      A                      A                      A
 Frequencies --    460.6268               475.4221               500.8733
 Red. masses --      7.7255                 6.0648                 5.4819
 Frc consts  --      0.9658                 0.8077                 0.8103
 IR Inten    --      9.3581                 1.9352                22.8325

                     28                     29                     30
                      A                      A                      A
 Frequencies --    528.4886               535.2781               567.8068
 Red. masses --      1.3274                 5.2948                14.4517
 Frc consts  --      0.2184                 0.8938                 2.7452
 IR Inten    --    226.6377                16.9197                 1.1102

                     31                     32                     33
                      A                      A                      A
 Frequencies --    601.8832               617.6223               655.3657
 Red. masses --      5.4503                 8.4612                 7.1081
 Frc consts  --      1.1633                 1.9016                 1.7988
 IR Inten    --     28.5991                 1.0400                11.5999

                     34                     35                     36
                      A                      A                      A
 Frequencies --    658.7317               675.5211               757.6661
 Red. masses --      5.7888                 9.2674                 1.6849
 Frc consts  --      1.4800                 2.4916                 0.5699
 IR Inten    --      4.2932                23.0777                22.9859

                     37                     38                     39
                      A                      A                      A
 Frequencies --    763.9401               768.8332               770.0269
 Red. masses --      3.6500                 2.7227                 6.8943
 Frc consts  --      1.2550                 0.9482                 2.4085
 IR Inten    --      2.3363                 4.0576                14.5755

                     40                     41                     42
                      A                      A                      A
 Frequencies --    773.2113               799.8706               868.0255
 Red. masses --     10.7634                 7.8298                 1.4753
 Frc consts  --      3.7914                 2.9515                 0.6549
 IR Inten    --      8.0413                 4.4390                88.1362

                     43                     44                     45
                      A                      A                      A
 Frequencies --    907.3480               921.6852               928.7941
 Red. masses --      1.1504                 1.5006                 1.8527
 Frc consts  --      0.5580                 0.7511                 0.9416
 IR Inten    --      2.8087                54.9505                 1.2911

                     46                     47                     48
                      A                      A                      A
 Frequencies --    956.1754              1004.9577              1045.7090
 Red. masses --      4.5316                 1.3458                 6.3934
 Frc consts  --      2.4411                 0.8008                 4.1191
 IR Inten    --     29.2977                 3.4660                73.1600

                     49                     50                     51
                      A                      A                      A
 Frequencies --   1051.2577              1085.0928              1127.5700
 Red. masses --      4.3763                 2.6097                 3.5744
 Frc consts  --      2.8495                 1.8104                 2.6775
 IR Inten    --     17.3567                15.6369               254.4229

                     52                     53                     54
                      A                      A                      A
 Frequencies --   1147.9560              1158.9443              1167.7507
 Red. masses --      2.4557                10.5027                 4.7669
 Frc consts  --      1.9066                 8.3115                 3.8299
 IR Inten    --     17.5907               154.1766               277.6640

                     55                     56                     57
                      A                      A                      A
 Frequencies --   1173.1227              1175.1287              1182.2606
 Red. masses --      4.0655                 5.8401                 1.6201
 Frc consts  --      3.2965                 4.7516                 1.3342
 IR Inten    --    281.3059               405.2424                 0.4658

                     58                     59                     60
                      A                      A                      A
 Frequencies --   1210.9185              1214.1908              1271.3379
 Red. masses --      1.9810                 4.8108                 1.6165
 Frc consts  --      1.7115                 4.1787                 1.5394
 IR Inten    --    201.9687               522.0838               471.0211

                     61                     62                     63
                      A                      A                      A
 Frequencies --   1282.4755              1289.9924              1314.6134
 Red. masses --      1.2051                 2.4554                 1.8760
 Frc consts  --      1.1678                 2.4074                 1.9102
 IR Inten    --     23.3805                80.1284               178.0800

                     64                     65                     66
                      A                      A                      A
 Frequencies --   1327.5343              1328.8442              1349.0992
 Red. masses --      2.1806                 1.2219                 1.9062
 Frc consts  --      2.2643                 1.2712                 2.0441
 IR Inten    --    223.7877                59.7462               560.2382

                     67                     68                     69
                      A                      A                      A
 Frequencies --   1356.0178              1385.6376              1421.7028
 Red. masses --      2.7713                 5.1622                 1.2944
 Frc consts  --      3.0023                 5.8396                 1.5414
 IR Inten    --    411.8974               432.1068                 0.5904

                     70                     71                     72
                      A                      A                      A
 Frequencies --   1430.1095              1477.1466              1491.8396
 Red. masses --      1.6237                 4.8556                 1.0589
 Frc consts  --      1.9566                 6.2422                 1.3885
 IR Inten    --      6.5236               315.6016                11.0307

                     73                     74                     75
                      A                      A                      A
 Frequencies --   1503.4077              1512.6084              1531.6098
 Red. masses --      1.0396                 1.0850                 1.0903
 Frc consts  --      1.3844                 1.4626                 1.5069
 IR Inten    --     11.8724                12.6486                38.4763

                     76                     77                     78
                      A                      A                      A
 Frequencies --   1549.8203              1577.5572              1592.7117
 Red. masses --      1.9287                 2.9613                 2.7350
 Frc consts  --      2.7295                 4.3421                 4.0877
 IR Inten    --    367.7606               226.7962              1011.9681

                     79                     80                     81
                      A                      A                      A
 Frequencies --   1665.9910              1693.6045              1709.2563
 Red. masses --      7.9951                 4.3385                 5.1685
 Frc consts  --     13.0743                 7.3319                 8.8967
 IR Inten    --    172.7017                50.3120               831.0955

                     82                     83                     84
                      A                      A                      A
 Frequencies --   3073.8151              3077.7952              3081.9705
 Red. masses --      1.0602                 1.0370                 1.0579
 Frc consts  --      5.9019                 5.7878                 5.9202
 IR Inten    --     10.7710                24.1398               101.5496

                     85                     86                     87
                      A                      A                      A
 Frequencies --   3107.3968              3127.3449              3148.4117
 Red. masses --      1.1032                 1.1073                 1.1039
 Frc consts  --      6.2764                 6.3808                 6.4473
 IR Inten    --      1.1074                52.6261                92.8586

                     88                     89                     90
                      A                      A                      A
 Frequencies --   3157.2313              3235.3266              3261.1229
 Red. masses --      1.1024                 1.0923                 1.0943
 Frc consts  --      6.4744                 6.7363                 6.8570
 IR Inten    --     47.8104                 2.2995                 0.3345

                     91                     92                     93
                      A                      A                      A
 Frequencies --   3319.2063              3579.3772              3630.0937
 Red. masses --      1.0912                 1.0791                 1.0795
 Frc consts  --      7.0833                 8.1459                 8.3814
 IR Inten    --     31.6326               134.1567               168.8290

 - Thermochemistry -
 -------------------
 Temperature   298.150 Kelvin.  Pressure   1.00000 Atm.
 Atom     1 has atomic number  6 and mass  12.00000

 Molecular mass:   314.08538 amu.
 Principal axes and moments of inertia in atomic units:
                           1         2         3
     Eigenvalues --  2537.48391********************
           X            1.00000  -0.00223  -0.00008
           Y            0.00223   1.00000   0.00193
           Z            0.00007  -0.00193   1.00000
 This molecule is an asymmetric top.
 Rotational symmetry number  1.
 Warning -- assumption of classical behavior for rotation
           may cause significant error
 Rotational temperatures (Kelvin)      0.03413     0.00565     0.00504
 Rotational constants (GHZ):           0.71123     0.11766     0.10493
 Zero-point vibrational energy     633037.0 (Joules/Mol)
                                  151.29948 (Kcal/Mol)
 Warning -- explicit consideration of  32 degrees of freedom as
           vibrations may cause significant error
 Vibrational temperatures:     24.14    38.50    61.34    75.86    83.29
          (Kelvin)             90.97   127.34   135.19   181.26   198.95
                              213.84   240.27   295.14   329.66   341.05
                              349.90   378.73   455.54   486.55   490.16
                              499.39   552.35   567.16   596.68   662.74
                              684.03   720.64   760.38   770.14   816.95
                              865.97   888.62   942.92   947.77   971.92
                             1090.11  1099.14  1106.18  1107.90  1112.48
                             1150.83  1248.89  1305.47  1326.10  1336.33
                             1375.72  1445.91  1504.54  1512.52  1561.20
                             1622.32  1651.65  1667.46  1680.13  1687.86
                             1690.75  1701.01  1742.24  1746.95  1829.17
                             1845.19  1856.01  1891.43  1910.02  1911.91
                             1941.05  1951.00  1993.62  2045.51  2057.61
                             2125.28  2146.42  2163.07  2176.30  2203.64
                             2229.84  2269.75  2291.55  2396.99  2436.72
                             2459.24  4422.53  4428.26  4434.26  4470.85
                             4499.55  4529.86  4542.55  4654.91  4692.02
                             4775.59  5149.92  5222.89

 Zero-point correction=                           0.241111 (Hartree/Particle)
 Thermal correction to Energy=                    0.261353
 Thermal correction to Enthalpy=                  0.262297
 Thermal correction to Gibbs Free Energy=         0.189143
 Sum of electronic and zero-point Energies=          -1247.695915
 Sum of electronic and thermal Energies=             -1247.675673
 Sum of electronic and thermal Enthalpies=           -1247.674729
 Sum of electronic and thermal Free Energies=        -1247.747883

                     E (Thermal)             CV                S
                      KCal/Mol        Cal/Mol-Kelvin    Cal/Mol-Kelvin
 Total                  164.001             73.234            153.965
 Electronic               0.000              0.000              0.000
 Translational            0.889              2.981             43.130
 Rotational               0.889              2.981             34.858
 Vibrational            162.224             67.272             75.977
 Vibration     1          0.593              1.986              6.983
 Vibration     2          0.593              1.984              6.056
 Vibration     3          0.595              1.980              5.133
 Vibration     4          0.596              1.977              4.713
 Vibration     5          0.596              1.974              4.528
 Vibration     6          0.597              1.972              4.354
 Vibration     7          0.601              1.957              3.693
 Vibration     8          0.603              1.954              3.576
 Vibration     9          0.611              1.927              3.007
 Vibration    10          0.614              1.915              2.828
 Vibration    11          0.618              1.904              2.690
 Vibration    12          0.624              1.883              2.469
 Vibration    13          0.640              1.833              2.087
 Vibration    14          0.652              1.797              1.886
 Vibration    15          0.656              1.784              1.825
 Vibration    16          0.659              1.774              1.779
 Vibration    17          0.670              1.740              1.640
 Vibration    18          0.703              1.642              1.328
 Vibration    19          0.718              1.599              1.221
 Vibration    20          0.720              1.594              1.209
 Vibration    21          0.725              1.581              1.179
 Vibration    22          0.753              1.505              1.024
 Vibration    23          0.761              1.483              0.984
 Vibration    24          0.778              1.438              0.910
 Vibration    25          0.818              1.337              0.764
 Vibration    26          0.832              1.305              0.723
 Vibration    27          0.856              1.248              0.656
 Vibration    28          0.883              1.187              0.591
 Vibration    29          0.890              1.172              0.576
 Vibration    30          0.924              1.101              0.508
 Vibration    31          0.960              1.028              0.446
 Vibration    32          0.977              0.995              0.420

 Normal termination of Gaussian 09 at Tue Oct 30 14:17:37 2018.
