 Gaussian 09, Revision E.01,

 ----------------------------------------------------------------------
 # M062X/Gen 6D SCF=Tight INT(grid=ultrafine) OPT IOP(2/17=4) SCRF=(SMD
 ,Solvent=n-Pentadecane) maxdisk=2684354560
 ----------------------------------------------------------------------

 -----------------------------------
 34TFM.M062X_6-31pGd_opt_Pentadecane
 -----------------------------------
 Symbolic Z-matrix:
 Charge =  0 Multiplicity = 1

 SCF Done:  E(RM062X) =  -1247.93265506     A.U. after   16 cycles
 SCF Done:  E(RM062X) =  -1247.93275863     A.U. after   12 cycles
 SCF Done:  E(RM062X) =  -1247.93278185     A.U. after   13 cycles
 SCF Done:  E(RM062X) =  -1247.93281986     A.U. after   11 cycles
 SCF Done:  E(RM062X) =  -1247.93283979     A.U. after   11 cycles
 SCF Done:  E(RM062X) =  -1247.93280048     A.U. after   12 cycles
 SCF Done:  E(RM062X) =  -1247.93280574     A.U. after   10 cycles
 SCF Done:  E(RM062X) =  -1247.93280684     A.U. after   10 cycles
 SCF Done:  E(RM062X) =  -1247.93280739     A.U. after   10 cycles
 SCF Done:  E(RM062X) =  -1247.93280759     A.U. after   10 cycles
 SCF Done:  E(RM062X) =  -1247.93280776     A.U. after    9 cycles
 SCF Done:  E(RM062X) =  -1247.93280787     A.U. after    8 cycles
 SCF Done:  E(RM062X) =  -1247.93280800     A.U. after    9 cycles
 SCF Done:  E(RM062X) =  -1247.93280812     A.U. after    9 cycles
 SCF Done:  E(RM062X) =  -1247.93280825     A.U. after    9 cycles
 SCF Done:  E(RM062X) =  -1247.93280830     A.U. after    8 cycles
 SCF Done:  E(RM062X) =  -1247.93280831     A.U. after    8 cycles
 Optimization completed.
    -- Stationary point found.
 Normal termination of Gaussian 09 at Thu Feb 21 19:52:23 2019.
 Gaussian 09:  ES64L-G09RevE.01 30-Nov-2015

 ----------------------------------------------------------------------
 # M062X/Gen 6D SCF=Tight INT(grid=ultrafine) SCRF=(SMD,Solvent=n-Penta
 decane) Freq=Noraman maxdisk=2684354560 geom=check guess=read IOP(2/17
 =4)
 ----------------------------------------------------------------------

 -----------------------------------
 34TFM.M062X_6-31pGd_opt_Pentadecane
 -----------------------------------
 Structure from the checkpoint file:  "34TFM.M062X_6-31pGd_opt_Pentadecane.chk"
 Charge =  0 Multiplicity = 1

                         Standard orientation:
 ---------------------------------------------------------------------
 Center     Atomic      Atomic             Coordinates (Angstroms)
 Number     Number       Type             X           Y           Z
 ---------------------------------------------------------------------
      1          6           0       -7.751173    0.488786    0.073224
      2          6           0       -6.552019   -0.453864    0.115399
      3          6           0       -5.246603    0.293995   -0.121984
      4          7           0       -4.118559   -0.627800   -0.083254
      5          6           0       -2.843285   -0.148418   -0.001576
      6          8           0       -2.583724    1.034985    0.155763
      7          7           0       -1.870288   -1.141395   -0.085463
      8          6           0       -0.487030   -0.983480   -0.043876
      9          6           0        0.153385    0.265496   -0.054964
     10          6           0        0.297568   -2.142331   -0.010105
     11          6           0        1.680380   -2.058795    0.019849
     12          6           0        2.326607   -0.823962    0.017306
     13          6           0        1.541446    0.338272   -0.030166
     14          1           0       -8.685099   -0.054042    0.246050
     15          1           0       -7.828178    0.987133   -0.899352
     16          1           0       -7.667361    1.264954    0.841686
     17          1           0       -6.671307   -1.234325   -0.648736
     18          1           0       -6.501626   -0.959871    1.087047
     19          1           0       -5.088141    1.045206    0.656560
     20          1           0       -5.278497    0.823701   -1.084349
     21          1           0       -4.270330   -1.554292   -0.463773
     22          1           0       -2.194009   -2.101523   -0.083326
     23          1           0       -0.437717    1.169406   -0.082265
     24          1           0       -0.178691   -3.119349   -0.004093
     25          1           0        2.266373   -2.970638    0.051390
     26          6           0        2.147889    1.725957   -0.022118
     27          6           0        3.834375   -0.817214    0.031668
     28          9           0        4.342882    0.114739    0.852456
     29          9           0        4.360895   -0.600875   -1.188440
     30          9           0        4.322315   -2.002226    0.446050
     31          9           0        1.272274    2.653754   -0.439160
     32          9           0        3.218646    1.816704   -0.826902
     33          9           0        2.540438    2.095844    1.209568
 ---------------------------------------------------------------------

 SCF Done:  E(RM062X) =  -1247.93280831     A.U. after    1 cycles

 The electronic state is 1-A.
 Alpha  occ. eigenvalues --  -25.30470 -25.30289 -25.30203 -25.30180 -25.29896
 Alpha  occ. eigenvalues --  -25.29892 -19.62525 -14.81991 -14.79755 -10.81774
 Alpha  occ. eigenvalues --  -10.81697 -10.69972 -10.63292 -10.60566 -10.59799
 Alpha  occ. eigenvalues --  -10.58692 -10.58661 -10.58157 -10.57703 -10.55589
 Alpha  occ. eigenvalues --  -10.54197  -1.47218  -1.46760  -1.37904  -1.37541
 Alpha  occ. eigenvalues --   -1.37419  -1.37242  -1.19241  -1.07790  -1.04342
 Alpha  occ. eigenvalues --   -0.99692  -0.90868  -0.89954  -0.88480  -0.82829
 Alpha  occ. eigenvalues --   -0.81177  -0.78542  -0.74721  -0.74120  -0.70356
 Alpha  occ. eigenvalues --   -0.69510  -0.69449  -0.69373  -0.68858  -0.68767
 Alpha  occ. eigenvalues --   -0.68062  -0.65726  -0.64034  -0.60059  -0.57887
 Alpha  occ. eigenvalues --   -0.57815  -0.57142  -0.57039  -0.56750  -0.55513
 Alpha  occ. eigenvalues --   -0.55410  -0.54225  -0.53766  -0.53284  -0.52656
 Alpha  occ. eigenvalues --   -0.52546  -0.52152  -0.51173  -0.51127  -0.50940
 Alpha  occ. eigenvalues --   -0.50259  -0.48947  -0.48748  -0.47380  -0.45897
 Alpha  occ. eigenvalues --   -0.45275  -0.43642  -0.43228  -0.41354  -0.40701
 Alpha  occ. eigenvalues --   -0.39827  -0.35966  -0.34075  -0.33278  -0.29315
 Alpha virt. eigenvalues --   -0.01985  -0.00480  -0.00189   0.02194   0.02994
 Alpha virt. eigenvalues --    0.03197   0.03634   0.03884   0.04753   0.05153
 Alpha virt. eigenvalues --    0.05217   0.05687   0.06739   0.06925   0.06976

 Mulliken charges:
               1
     1  C   -0.738278
     2  C   -0.333504
     3  C   -0.184355
     4  N   -0.618690
     5  C    0.782470
     6  O   -0.591877
     7  N   -0.656848
     8  C   -0.353599
     9  C    0.277247
    10  C   -0.531804
    11  C   -0.378605
    12  C   -0.543387
    13  C   -0.773540
    14  H    0.218906
    15  H    0.218529
    16  H    0.220285
    17  H    0.211648
    18  H    0.229899
    19  H    0.246946
    20  H    0.224091
    21  H    0.415276
    22  H    0.440883
    23  H    0.307796
    24  H    0.228484
    25  H    0.261192
    26  C    1.606423
    27  C    1.547870
    28  F   -0.284129
    29  F   -0.258027
    30  F   -0.333347
    31  F   -0.325001
    32  F   -0.281523
    33  F   -0.251431
 Sum of Mulliken charges =  -0.00000

 Dipole moment (field-independent basis, Debye):
    X=             -8.1464    Y=             -6.6869    Z=             -0.9066  Tot=             10.5783
 Quadrupole moment (field-independent basis, Debye-Ang):
   XX=           -111.3702   YY=           -113.9409   ZZ=           -123.6370
   XY=              8.6299   XZ=              3.4101   YZ=              0.8045

  Exact polarizability: 252.656  -2.851 178.875   1.945   0.218 116.352
 Approx polarizability: 226.799   1.061 203.993   2.191   1.025 136.902

                      1                      2                      3
                      A                      A                      A
 Frequencies --     13.4870                28.7579                47.8076
 Red. masses --      5.5380                 2.9786                 5.9304
 Frc consts  --      0.0006                 0.0015                 0.0080
 IR Inten    --      1.0386                 6.0322                 1.0705

                      4                      5                      6
                      A                      A                      A
 Frequencies --     51.0439                62.7070                71.3101
 Red. masses --      4.1984                 4.0416                 3.7378
 Frc consts  --      0.0064                 0.0094                 0.0112
 IR Inten    --      5.6795                 2.9928                 1.5861

                      7                      8                      9
                      A                      A                      A
 Frequencies --     90.0592               100.6842               123.7869
 Red. masses --     18.3186                 4.8760                 5.8519
 Frc consts  --      0.0875                 0.0291                 0.0528
 IR Inten    --      0.0298                 0.2071                 5.5182

                     10                     11                     12
                      A                      A                      A
 Frequencies --    139.6326               167.1230               187.0608
 Red. masses --      7.8545                13.5530                 3.1371
 Frc consts  --      0.0902                 0.2230                 0.0647
 IR Inten    --      0.1711                 1.2553                 2.2895

                     13                     14                     15
                      A                      A                      A
 Frequencies --    204.7366               230.8136               234.2906
 Red. masses --      7.5373                 6.4688                 1.3689
 Frc consts  --      0.1861                 0.2030                 0.0443
 IR Inten    --      0.2550                11.1176                 0.4522

                     16                     17                     18
                      A                      A                      A
 Frequencies --    238.1597               262.2389               315.0811
 Red. masses --      3.1733                 7.9544                 3.3960
 Frc consts  --      0.1060                 0.3223                 0.1986
 IR Inten    --      2.9689                 4.1411                14.7593

                     19                     20                     21
                      A                      A                      A
 Frequencies --    321.7555               338.6541               345.9912
 Red. masses --      1.9905                12.5928                 3.1146
 Frc consts  --      0.1214                 0.8509                 0.2197
 IR Inten    --     84.4096                 0.4993                11.3659

                     22                     23                     24
                      A                      A                      A
 Frequencies --    386.0086               397.4262               417.7086
 Red. masses --      7.9631                 5.2976                 5.0018
 Frc consts  --      0.6991                 0.4930                 0.5142
 IR Inten    --      3.8391                13.5720                 5.1174

                     25                     26                     27
                      A                      A                      A
 Frequencies --    462.0227               478.3983               509.0311
 Red. masses --      7.5390                 6.2057                 5.1345
 Frc consts  --      0.9482                 0.8368                 0.7839
 IR Inten    --      6.9241                 1.2455                22.0229

                     28                     29                     30
                      A                      A                      A
 Frequencies --    533.1377               536.3134               569.9578
 Red. masses --      1.4842                 4.0877                13.8546
 Frc consts  --      0.2485                 0.6927                 2.6517
 IR Inten    --    129.1482                18.8825                 1.7170

                     31                     32                     33
                      A                      A                      A
 Frequencies --    604.4114               620.5603               656.4634
 Red. masses --      5.2405                 8.3129                 5.5117
 Frc consts  --      1.1280                 1.8861                 1.3994
 IR Inten    --     19.2517                 1.0716                 1.9996

                     34                     35                     36
                      A                      A                      A
 Frequencies --    659.6055               680.3849               754.6664
 Red. masses --      7.2824                 9.2364                 1.8752
 Frc consts  --      1.8668                 2.5192                 0.6292
 IR Inten    --      9.7217                18.6225                12.8391

                     37                     38                     39
                      A                      A                      A
 Frequencies --    766.0174               768.4223               773.6081
 Red. masses --      2.3653                 4.1034                 6.5044
 Frc consts  --      0.8177                 1.4276                 2.2935
 IR Inten    --      4.8931                 0.6662                13.0945

                     40                     41                     42
                      A                      A                      A
 Frequencies --    776.8360               804.9744               859.3387
 Red. masses --     10.6487                 7.1228                 1.4951
 Frc consts  --      3.7862                 2.7193                 0.6505
 IR Inten    --      5.5758                 3.8182                54.7572

                     43                     44                     45
                      A                      A                      A
 Frequencies --    901.4366               929.0444               946.1836
 Red. masses --      1.1841                 1.8264                 1.4092
 Frc consts  --      0.5669                 0.9288                 0.7433
 IR Inten    --      2.6813                 1.1498                24.0142

                     46                     47                     48
                      A                      A                      A
 Frequencies --    959.6863               994.8078              1047.2709
 Red. masses --      4.7631                 1.3401                 4.3588
 Frc consts  --      2.5846                 0.7814                 2.8167
 IR Inten    --     22.5555                 3.6847                 1.8250

                     49                     50                     51
                      A                      A                      A
 Frequencies --   1049.9042              1082.8694              1134.3635
 Red. masses --      6.0465                 2.5828                 3.5550
 Frc consts  --      3.9270                 1.7844                 2.6952
 IR Inten    --     58.3330                 9.6332               179.3213

                     52                     53                     54
                      A                      A                      A
 Frequencies --   1152.5618              1166.3749              1177.3308
 Red. masses --      2.4706                 2.4929                 2.7908
 Frc consts  --      1.9337                 1.9981                 2.2791
 IR Inten    --      8.5201                 6.0154                84.9177

                     55                     56                     57
                      A                      A                      A
 Frequencies --   1182.1254              1193.7430              1218.0292
 Red. masses --      1.8524                 8.2085                 3.7389
 Frc consts  --      1.5251                 6.8919                 3.2682
 IR Inten    --      8.3075                 9.1151               452.5987

                     58                     59                     60
                      A                      A                      A
 Frequencies --   1223.6786              1242.8868              1253.7994
 Red. masses --      3.6272                 9.7272                 1.6583
 Frc consts  --      3.2000                 8.8532                 1.5359
 IR Inten    --    491.8726               259.8103               273.0682

                     61                     62                     63
                      A                      A                      A
 Frequencies --   1281.8253              1299.7765              1319.4623
 Red. masses --      1.2935                 2.3928                 1.8814
 Frc consts  --      1.2522                 2.3817                 1.9298
 IR Inten    --    148.4695                46.6600               119.7204

                     64                     65                     66
                      A                      A                      A
 Frequencies --   1324.6954              1333.4805              1352.1086
 Red. masses --      1.2630                 2.5535                 1.4614
 Frc consts  --      1.3058                 2.6752                 1.5742
 IR Inten    --     30.7499               272.9007               159.7035

                     67                     68                     69
                      A                      A                      A
 Frequencies --   1360.9920              1387.7498              1426.6809
 Red. masses --      3.9930                 4.8733                 1.5022
 Frc consts  --      4.3577                 5.5296                 1.8015
 IR Inten    --    331.8192               490.0480                 0.8854

                     70                     71                     72
                      A                      A                      A
 Frequencies --   1437.2644              1483.3579              1509.0044
 Red. masses --      1.3461                 4.9887                 1.0602
 Frc consts  --      1.6383                 6.4674                 1.4224
 IR Inten    --      2.1530               228.2180                 6.5869

                     73                     74                     75
                      A                      A                      A
 Frequencies --   1519.1309              1522.1700              1534.8215
 Red. masses --      1.0399                 1.0753                 1.0948
 Frc consts  --      1.4140                 1.4679                 1.5195
 IR Inten    --     13.3323                 2.7988                 6.7608

                     76                     77                     78
                      A                      A                      A
 Frequencies --   1551.8358              1575.9321              1607.9500
 Red. masses --      1.7442                 2.8085                 2.4741
 Frc consts  --      2.4748                 4.1095                 3.7688
 IR Inten    --    419.1063               107.4840               609.0400

                     79                     80                     81
                      A                      A                      A
 Frequencies --   1674.3053              1701.5175              1809.6413
 Red. masses --      5.0270                 5.7797                 7.6407
 Frc consts  --      8.3029                 9.8589                14.7425
 IR Inten    --    202.3459                44.3335               390.0248

                     82                     83                     84
                      A                      A                      A
 Frequencies --   3060.3656              3065.1361              3080.0124
 Red. masses --      1.0683                 1.0650                 1.0365
 Frc consts  --      5.8949                 5.8950                 5.7934
 IR Inten    --     24.6127                45.5776                34.3003

                     85                     86                     87
                      A                      A                      A
 Frequencies --   3107.9817              3144.6357              3151.9592
 Red. masses --      1.0982                 1.0977                 1.1022
 Frc consts  --      6.2504                 6.3953                 6.4515
 IR Inten    --     17.9024                 1.0218                61.3023

                     88                     89                     90
                      A                      A                      A
 Frequencies --   3158.6579              3219.1622              3258.7285
 Red. masses --      1.1021                 1.0913                 1.0936
 Frc consts  --      6.4783                 6.6631                 6.8423
 IR Inten    --     32.7410                 7.7390                 0.2848

                     91                     92                     93
                      A                      A                      A
 Frequencies --   3314.4106              3618.6488              3626.7564
 Red. masses --      1.0911                 1.0781                 1.0779
 Frc consts  --      7.0618                 8.3177                 8.3533
 IR Inten    --     27.9918                 8.1513                99.0837

 - Thermochemistry -
 -------------------
 Temperature   298.150 Kelvin.  Pressure   1.00000 Atm.
 Atom     1 has atomic number  6 and mass  12.00000

 Molecular mass:   314.08538 amu.
 Principal axes and moments of inertia in atomic units:
                           1         2         3
     Eigenvalues --  2538.55320********************
           X            1.00000  -0.00248   0.00005
           Y            0.00248   1.00000   0.00115
           Z           -0.00005  -0.00115   1.00000
 This molecule is an asymmetric top.
 Rotational symmetry number  1.
 Warning -- assumption of classical behavior for rotation
           may cause significant error
 Rotational temperatures (Kelvin)      0.03412     0.00565     0.00504
 Rotational constants (GHZ):           0.71093     0.11779     0.10504
 Zero-point vibrational energy     635616.2 (Joules/Mol)
                                  151.91591 (Kcal/Mol)
 Warning -- explicit consideration of  32 degrees of freedom as
           vibrations may cause significant error
 Vibrational temperatures:     19.40    41.38    68.78    73.44    90.22
          (Kelvin)            102.60   129.57   144.86   178.10   200.90
                              240.45   269.14   294.57   332.09   337.09
                              342.66   377.30   453.33   462.93   487.25
                              497.80   555.38   571.81   600.99   664.75
                              688.31   732.38   767.07   771.63   820.04
                              869.61   892.85   944.50   949.02   978.92
                             1085.80  1102.13  1105.59  1113.05  1117.69
                             1158.18  1236.40  1296.96  1336.69  1361.35
                             1380.77  1431.30  1506.79  1510.58  1558.01
                             1632.09  1658.28  1678.15  1693.91  1700.81
                             1717.53  1752.47  1760.60  1788.23  1803.94
                             1844.26  1870.09  1898.41  1905.94  1918.58
                             1945.38  1958.16  1996.66  2052.67  2067.90
                             2134.22  2171.12  2185.69  2190.06  2208.26
                             2232.74  2267.41  2313.48  2408.95  2448.10
                             2603.67  4403.18  4410.04  4431.45  4471.69
                             4524.42  4534.96  4544.60  4631.65  4688.58
                             4768.69  5206.42  5218.09

 Zero-point correction=                           0.242093 (Hartree/Particle)
 Thermal correction to Energy=                    0.262216
 Thermal correction to Enthalpy=                  0.263161
 Thermal correction to Gibbs Free Energy=         0.190404
 Sum of electronic and zero-point Energies=          -1247.690715
 Sum of electronic and thermal Energies=             -1247.670592
 Sum of electronic and thermal Enthalpies=           -1247.669648
 Sum of electronic and thermal Free Energies=        -1247.742405

                     E (Thermal)             CV                S
                      KCal/Mol        Cal/Mol-Kelvin    Cal/Mol-Kelvin
 Total                  164.543             72.996            153.130
 Electronic               0.000              0.000              0.000
 Translational            0.889              2.981             43.130
 Rotational               0.889              2.981             34.857
 Vibrational            162.766             67.034             75.143
 Vibration     1          0.593              1.987              7.417
 Vibration     2          0.593              1.984              5.913
 Vibration     3          0.595              1.978              4.906
 Vibration     4          0.595              1.977              4.777
 Vibration     5          0.597              1.972              4.370
 Vibration     6          0.598              1.968              4.117
 Vibration     7          0.602              1.956              3.659
 Vibration     8          0.604              1.949              3.441
 Vibration     9          0.610              1.929              3.040
 Vibration    10          0.615              1.914              2.809
 Vibration    11          0.624              1.883              2.468
 Vibration    12          0.632              1.858              2.257
 Vibration    13          0.640              1.833              2.090
 Vibration    14          0.653              1.794              1.873
 Vibration    15          0.654              1.788              1.846
 Vibration    16          0.656              1.782              1.817
 Vibration    17          0.670              1.742              1.647
 Vibration    18          0.702              1.645              1.336
 Vibration    19          0.707              1.632              1.301
 Vibration    20          0.719              1.598              1.218
 Vibration    21          0.724              1.583              1.184
 Vibration    22          0.755              1.500              1.016
 Vibration    23          0.764              1.476              0.972
 Vibration    24          0.781              1.432              0.900
 Vibration    25          0.820              1.334              0.760
 Vibration    26          0.835              1.298              0.714
 Vibration    27          0.864              1.230              0.636
 Vibration    28          0.888              1.177              0.580
 Vibration    29          0.891              1.170              0.573
 Vibration    30          0.926              1.096              0.504
 Vibration    31          0.963              1.022              0.442
 Vibration    32          0.981              0.989              0.416

 Optimization completed.
    -- Stationary point found.
 Normal termination of Gaussian 09 at Thu Feb 21 20:27:11 2019.
