 Gaussian 09, Revision E.01,

 ----------------------------------------------------------------------
 # M062X/Gen 6D SCF=Tight INT(grid=ultrafine) OPT IOP(2/17=4) maxdisk=2
 684354560
 ----------------------------------------------------------------------

 --------------------------
 34TFM_a1.M062X_6-31pGd_opt
 --------------------------
 Symbolic Z-matrix:
 Charge = -1 Multiplicity = 1

 SCF Done:  E(RM062X) =  -1247.38240247     A.U. after   16 cycles
 SCF Done:  E(RM062X) =  -1247.38451364     A.U. after   16 cycles
 SCF Done:  E(RM062X) =  -1247.38471846     A.U. after   16 cycles
 SCF Done:  E(RM062X) =  -1247.38557990     A.U. after   14 cycles
 SCF Done:  E(RM062X) =  -1247.38569454     A.U. after   14 cycles
 SCF Done:  E(RM062X) =  -1247.38568409     A.U. after   14 cycles
 SCF Done:  E(RM062X) =  -1247.38584168     A.U. after   14 cycles
 SCF Done:  E(RM062X) =  -1247.38588724     A.U. after   13 cycles
 SCF Done:  E(RM062X) =  -1247.38593590     A.U. after   13 cycles
 SCF Done:  E(RM062X) =  -1247.38597494     A.U. after   14 cycles
 SCF Done:  E(RM062X) =  -1247.38608194     A.U. after   13 cycles
 SCF Done:  E(RM062X) =  -1247.38609683     A.U. after   13 cycles
 SCF Done:  E(RM062X) =  -1247.38609972     A.U. after   11 cycles
 SCF Done:  E(RM062X) =  -1247.38610222     A.U. after   12 cycles
 SCF Done:  E(RM062X) =  -1247.38610581     A.U. after   12 cycles
 SCF Done:  E(RM062X) =  -1247.38610721     A.U. after   11 cycles
 SCF Done:  E(RM062X) =  -1247.38610736     A.U. after   11 cycles
 SCF Done:  E(RM062X) =  -1247.38610764     A.U. after   11 cycles
 Optimization completed.
    -- Stationary point found.
 Normal termination of Gaussian 09 at Wed Oct 31 12:29:38 2018.
 Gaussian 09:  ES64L-G09RevE.01 30-Nov-2015

 ----------------------------------------------------------------------
 # M062X/Gen 6D SCF=Tight INT(grid=ultrafine) OPT IOP(2/17=4) Freq=Nora
 man maxdisk=2684354560 geom=check guess=read IOP(2/17=4)
 ----------------------------------------------------------------------

 --------------------------
 34TFM_a1.M062X_6-31pGd_opt
 --------------------------
 Structure from the checkpoint file:  "34TFM_a1.M062X_6-31pGd_opt.chk"
 Charge = -1 Multiplicity = 1

 SCF Done:  E(RM062X) =  -1247.38610764     A.U. after    2 cycles
 Optimization completed.
    -- Stationary point found.
 Normal termination of Gaussian 09 at Wed Oct 31 12:30:27 2018.

 ----------------------------------------------------------------------
 #N Geom=AllCheck Guess=TCheck SCRF=Check Test GenChk RM062X/ChkBas Fre
 q
 ----------------------------------------------------------------------

 Structure from the checkpoint file:  "34TFM_a1.M062X_6-31pGd_opt.chk"
 --------------------------
 34TFM_a1.M062X_6-31pGd_opt
 --------------------------
 Charge = -1 Multiplicity = 1

                         Standard orientation:
 ---------------------------------------------------------------------
 Center     Atomic      Atomic             Coordinates (Angstroms)
 Number     Number       Type             X           Y           Z
 ---------------------------------------------------------------------
      1          6           0       -7.660518    0.600477   -0.033688
      2          6           0       -6.464653   -0.244863   -0.468404
      3          6           0       -5.225639    0.035291    0.380648
      4          7           0       -4.101584   -0.774217   -0.017839
      5          6           0       -2.790784   -0.272811    0.056107
      6          8           0       -2.619940    0.956520    0.108470
      7          7           0       -1.887524   -1.284015    0.040264
      8          6           0       -0.558680   -1.039390    0.029602
      9          6           0        0.104234    0.229499   -0.000516
     10          6           0        0.300734   -2.172995    0.042091
     11          6           0        1.676032   -2.061100    0.035305
     12          6           0        2.313211   -0.812966    0.014650
     13          6           0        1.486998    0.329890   -0.013212
     14          1           0       -8.544510    0.399955   -0.648628
     15          1           0       -7.430021    1.669106   -0.113886
     16          1           0       -7.925963    0.398309    1.010959
     17          1           0       -6.215387   -0.048570   -1.517756
     18          1           0       -6.721085   -1.311599   -0.401592
     19          1           0       -5.478543   -0.107510    1.447667
     20          1           0       -4.912389    1.076987    0.263535
     21          1           0       -4.146096   -1.767644    0.169738
     22          1           0       -0.504196    1.122580   -0.015351
     23          1           0       -0.171109   -3.151240    0.060097
     24          1           0        2.283390   -2.960928    0.050585
     25          6           0        2.066943    1.722555   -0.014214
     26          6           0        3.805256   -0.780513   -0.024024
     27          9           0        4.351916    0.156806    0.778886
     28          9           0        4.319128   -0.553800   -1.259701
     29          9           0        4.343587   -1.961616    0.367882
     30          9           0        1.175922    2.656627   -0.391316
     31          9           0        3.117262    1.848844   -0.853259
     32          9           0        2.506672    2.101760    1.206822
 ---------------------------------------------------------------------

 SCF Done:  E(RM062X) =  -1247.38610764     A.U. after    1 cycles

 The electronic state is 1-A.
 Alpha  occ. eigenvalues --  -25.19092 -25.18679 -25.18653 -25.18620 -25.18311
 Alpha  occ. eigenvalues --  -25.18227 -19.46120 -14.63860 -14.58279 -10.69842
 Alpha  occ. eigenvalues --  -10.69653 -10.51992 -10.46826 -10.46613 -10.46475
 Alpha  occ. eigenvalues --  -10.45861 -10.45540 -10.45283 -10.44916 -10.42646
 Alpha  occ. eigenvalues --  -10.42639  -1.35365  -1.34928  -1.26181  -1.25766
 Alpha  occ. eigenvalues --   -1.25623  -1.25370  -1.01306  -0.89195  -0.87612
 Alpha  occ. eigenvalues --   -0.84096  -0.78423  -0.76618  -0.74800  -0.69439
 Alpha  occ. eigenvalues --   -0.68240  -0.66180  -0.60674  -0.60659  -0.58162
 Alpha  occ. eigenvalues --   -0.57670  -0.57464  -0.57169  -0.57003  -0.55046
 Alpha  occ. eigenvalues --   -0.52692  -0.49278  -0.46925  -0.46307  -0.46215
 Alpha  occ. eigenvalues --   -0.45581  -0.45404  -0.44014  -0.43453  -0.41999
 Alpha  occ. eigenvalues --   -0.41936  -0.41626  -0.40968  -0.40621  -0.39950
 Alpha  occ. eigenvalues --   -0.39647  -0.39437  -0.39080  -0.38225  -0.36798
 Alpha  occ. eigenvalues --   -0.35831  -0.35592  -0.34441  -0.33138  -0.32441
 Alpha  occ. eigenvalues --   -0.32070  -0.30541  -0.29853  -0.28786  -0.23426
 Alpha  occ. eigenvalues --   -0.21918  -0.20105  -0.18127  -0.16514  -0.11186
 Alpha virt. eigenvalues --    0.09834   0.11168   0.11533   0.11922   0.12527
 Alpha virt. eigenvalues --    0.12888   0.13171   0.13611   0.13852   0.14541
 Alpha virt. eigenvalues --    0.14791   0.15623   0.15931   0.16038   0.16455

 Mulliken charges:
               1
     1  C   -0.740683
     2  C   -0.235933
     3  C   -0.227646
     4  N   -0.516764
     5  C    0.655923
     6  O   -0.646183
     7  N   -0.505100
     8  C   -0.369596
     9  C    0.378009
    10  C   -0.632433
    11  C   -0.317213
    12  C   -1.034901
    13  C   -0.635076
    14  H    0.191610
    15  H    0.208265
    16  H    0.199219
    17  H    0.218378
    18  H    0.190342
    19  H    0.173273
    20  H    0.255184
    21  H    0.394838
    22  H    0.292849
    23  H    0.192972
    24  H    0.207112
    25  C    1.533575
    26  C    1.591928
    27  F   -0.294768
    28  F   -0.272812
    29  F   -0.349844
    30  F   -0.332850
    31  F   -0.299187
    32  F   -0.272487
 Sum of Mulliken charges =  -1.00000

 Dipole moment (field-independent basis, Debye):
    X=             -0.6695    Y=             -1.2227    Z=              0.3278  Tot=              1.4320
 Quadrupole moment (field-independent basis, Debye-Ang):
   XX=           -170.9855   YY=           -133.4505   ZZ=           -127.9482
   XY=              1.1711   XZ=             -1.3235   YZ=             -1.4564

  Exact polarizability: 282.753  -8.410 163.498  -1.978   1.132 113.520
 Approx polarizability: 276.739  -4.266 210.429  -1.690   0.791 147.138

                      1                      2                      3
                      A                      A                      A
 Frequencies --     13.7431                30.8747                36.7382
 Red. masses --      3.7687                 4.1174                 6.3410
 Frc consts  --      0.0004                 0.0023                 0.0050
 IR Inten    --      0.6800                 0.2691                 4.5258

                      4                      5                      6
                      A                      A                      A
 Frequencies --     57.6942                68.5654                74.9995
 Red. masses --      6.8479                 3.2629                 4.0331
 Frc consts  --      0.0134                 0.0090                 0.0134
 IR Inten    --      1.9884                 0.9118                 1.1534

                      7                      8                      9
                      A                      A                      A
 Frequencies --     91.5261               109.6577               128.4169
 Red. masses --     18.7431                 4.1782                 6.1824
 Frc consts  --      0.0925                 0.0296                 0.0601
 IR Inten    --      0.0107                 1.9224                 1.2813

                     10                     11                     12
                      A                      A                      A
 Frequencies --    150.2475               167.5096               198.3027
 Red. masses --     10.3834                13.5860                 4.4936
 Frc consts  --      0.1381                 0.2246                 0.1041
 IR Inten    --      1.4497                 0.1194                 5.7845

                     13                     14                     15
                      A                      A                      A
 Frequencies --    208.6524               235.1422               239.4503
 Red. masses --      7.6821                 1.1252                 6.9458
 Frc consts  --      0.1971                 0.0367                 0.2346
 IR Inten    --      0.3459                 0.1209                 3.2778

                     16                     17                     18
                      A                      A                      A
 Frequencies --    254.1205               271.5484               321.1821
 Red. masses --      7.4996                 4.4664                 8.2582
 Frc consts  --      0.2853                 0.1940                 0.5019
 IR Inten    --      1.2688                 0.6253                 2.7001

                     19                     20                     21
                      A                      A                      A
 Frequencies --    341.3062               346.9443               395.4636
 Red. masses --     14.8543                 4.8116                 7.6872
 Frc consts  --      1.0195                 0.3412                 0.7083
 IR Inten    --      0.0752                18.8466                 3.8213

                     22                     23                     24
                      A                      A                      A
 Frequencies --    401.2364               423.7372               463.3508
 Red. masses --      6.4789                 6.4943                 7.1710
 Frc consts  --      0.6145                 0.6870                 0.9071
 IR Inten    --     28.6813                 1.3989                 3.7280

                     25                     26                     27
                      A                      A                      A
 Frequencies --    475.9418               508.8482               537.7412
 Red. masses --      5.2079                 4.3195                11.7389
 Frc consts  --      0.6951                 0.6590                 2.0000
 IR Inten    --      2.3029                 5.1416                 1.3663

                     28                     29                     30
                      A                      A                      A
 Frequencies --    566.7487               593.9409               600.7741
 Red. masses --      8.4105                 1.7039                 5.9495
 Frc consts  --      1.5917                 0.3541                 1.2652
 IR Inten    --      8.5611               124.3727                20.5290

                     31                     32                     33
                      A                      A                      A
 Frequencies --    617.7584               657.7475               672.3082
 Red. masses --      7.2064                 5.0601                 4.5049
 Frc consts  --      1.6203                 1.2898                 1.1997
 IR Inten    --      6.6298                11.7121                 6.3561

                     34                     35                     36
                      A                      A                      A
 Frequencies --    678.2121               747.6939               750.4223
 Red. masses --      9.6138                 1.3249                 5.1737
 Frc consts  --      2.6054                 0.4364                 1.7166
 IR Inten    --     11.0491                 6.0826                 4.5312

                     37                     38                     39
                      A                      A                      A
 Frequencies --    768.5970               773.9584               790.6776
 Red. masses --      5.4049                 4.2325                 5.6943
 Frc consts  --      1.8812                 1.4938                 2.0974
 IR Inten    --      5.9749                 7.3336                 8.0594

                     40                     41                     42
                      A                      A                      A
 Frequencies --    801.6662               856.5774               890.5572
 Red. masses --     10.3547                 1.5399                 1.2911
 Frc consts  --      3.9208                 0.6657                 0.6033
 IR Inten    --     17.9690                35.5817                22.4684

                     43                     44                     45
                      A                      A                      A
 Frequencies --    915.6239               938.6823               942.7263
 Red. masses --      1.8762                 1.5220                 3.7007
 Frc consts  --      0.9268                 0.7901                 1.9378
 IR Inten    --     10.6672                21.6934                18.9283

                     46                     47                     48
                      A                      A                      A
 Frequencies --    987.5129              1013.4388              1035.2669
 Red. masses --      1.2987                 3.9304                 5.8628
 Frc consts  --      0.7462                 2.3784                 3.7022
 IR Inten    --      2.6199                99.7570                21.7330

                     49                     50                     51
                      A                      A                      A
 Frequencies --   1070.1013              1119.2663              1143.8659
 Red. masses --      2.5981                 3.3592                 2.1274
 Frc consts  --      1.7529                 2.4794                 1.6400
 IR Inten    --     11.1790               379.4111                27.4285

                     52                     53                     54
                      A                      A                      A
 Frequencies --   1145.4512              1161.2905              1162.7866
 Red. masses --      2.7527                 2.3894                 3.2460
 Frc consts  --      2.1279                 1.8985                 2.5858
 IR Inten    --     45.3300                20.8451                37.7964

                     55                     56                     57
                      A                      A                      A
 Frequencies --   1194.4340              1198.8204              1203.7920
 Red. masses --      2.9403                 5.3435                 3.1572
 Frc consts  --      2.4715                 4.5247                 2.6956
 IR Inten    --    137.9578               366.6966               255.5913

                     58                     59                     60
                      A                      A                      A
 Frequencies --   1233.4772              1245.5893              1277.1740
 Red. masses --      9.8601                 2.0400                 1.4122
 Frc consts  --      8.8388                 1.8648                 1.3572
 IR Inten    --    456.7076               295.1836               351.2527

                     61                     62                     63
                      A                      A                      A
 Frequencies --   1299.4161              1319.3396              1331.1711
 Red. masses --      1.4648                 1.2319                 4.2366
 Frc consts  --      1.4572                 1.2634                 4.4231
 IR Inten    --    161.2644                96.2636               485.0196

                     64                     65                     66
                      A                      A                      A
 Frequencies --   1335.6184              1343.0996              1362.5641
 Red. masses --      2.2827                 2.1161                 3.5021
 Frc consts  --      2.3992                 2.2491                 3.8308
 IR Inten    --      6.3733                82.2699               545.2624

                     67                     68                     69
                      A                      A                      A
 Frequencies --   1414.7702              1426.7705              1453.4495
 Red. masses --      1.7219                 1.3161                 4.0644
 Frc consts  --      2.0306                 1.5785                 5.0587
 IR Inten    --    185.2527                12.1126               817.4836

                     70                     71                     72
                      A                      A                      A
 Frequencies --   1490.2764              1510.1702              1512.4092
 Red. masses --      6.3037                 1.2821                 1.4732
 Frc consts  --      8.2486                 1.7228                 1.9854
 IR Inten    --     80.6008               296.4228               472.2235

                     73                     74                     75
                      A                      A                      A
 Frequencies --   1521.5997              1523.3958              1532.8127
 Red. masses --      1.0796                 1.0731                 1.0798
 Frc consts  --      1.4727                 1.4673                 1.4948
 IR Inten    --     13.6578                45.2980                 7.4799

                     76                     77                     78
                      A                      A                      A
 Frequencies --   1581.2058              1610.7957              1650.5716
 Red. masses --      4.0907                 8.0357                 6.2801
 Frc consts  --      6.0259                12.2845                10.0806
 IR Inten    --    291.9629                 4.3301               583.5046

                     79                     80                     81
                      A                      A                      A
 Frequencies --   1716.5848              2972.5156              3055.3680
 Red. masses --      8.0931                 1.0735                 1.0664
 Frc consts  --     14.0507                 5.5884                 5.8655
 IR Inten    --    223.6199               133.1587                38.5007

                     82                     83                     84
                      A                      A                      A
 Frequencies --   3064.9021              3105.2099              3132.8252
 Red. masses --      1.0358                 1.0956                 1.0987
 Frc consts  --      5.7325                 6.2241                 6.3531
 IR Inten    --     50.2391                11.3509                42.0430

                     85                     86                     87
                      A                      A                      A
 Frequencies --   3137.2863              3143.0067              3219.6191
 Red. masses --      1.1012                 1.0923                 1.0873
 Frc consts  --      6.3858                 6.3573                 6.6404
 IR Inten    --     53.3484                30.4729                 8.3512

                     88                     89                     90
                      A                      A                      A
 Frequencies --   3238.1775              3303.5608              3635.5366
 Red. masses --      1.0943                 1.0899                 1.0761
 Frc consts  --      6.7604                 7.0079                 8.3803
 IR Inten    --     18.3987                13.6972                12.7511

 - Thermochemistry -
 -------------------
 Temperature   298.150 Kelvin.  Pressure   1.00000 Atm.
 Atom     1 has atomic number  6 and mass  12.00000

 Molecular mass:   313.07756 amu.
 Principal axes and moments of inertia in atomic units:
                           1         2         3
     Eigenvalues --  2557.99996********************
           X            0.99999  -0.00454   0.00028
           Y            0.00454   0.99999  -0.00002
           Z           -0.00028   0.00002   1.00000
 This molecule is an asymmetric top.
 Rotational symmetry number  1.
 Warning -- assumption of classical behavior for rotation
           may cause significant error
 Rotational temperatures (Kelvin)      0.03386     0.00575     0.00512
 Rotational constants (GHZ):           0.70553     0.11981     0.10672
 Zero-point vibrational energy     599651.5 (Joules/Mol)
                                  143.32016 (Kcal/Mol)
 Warning -- explicit consideration of  31 degrees of freedom as
           vibrations may cause significant error
 Vibrational temperatures:     19.77    44.42    52.86    83.01    98.65
          (Kelvin)            107.91   131.69   157.77   184.76   216.17
                              241.01   285.31   300.20   338.32   344.52
                              365.62   390.70   462.11   491.06   499.17
                              568.98   577.29   609.66   666.66   684.77
                              732.12   773.69   815.42   854.55   864.38
                              888.82   946.35   967.30   975.79  1075.76
                             1079.69  1105.84  1113.55  1137.61  1153.42
                             1232.42  1281.31  1317.38  1350.55  1356.37
                             1420.81  1458.11  1489.52  1539.64  1610.37
                             1645.77  1648.05  1670.84  1672.99  1718.52
                             1724.83  1731.99  1774.70  1792.12  1837.57
                             1869.57  1898.23  1915.26  1921.65  1932.42
                             1960.42  2035.54  2052.80  2091.19  2144.17
                             2172.80  2176.02  2189.24  2191.82  2205.37
                             2275.00  2317.57  2374.80  2469.78  4276.78
                             4395.99  4409.70  4467.70  4507.43  4513.85
                             4522.08  4632.31  4659.01  4753.08  5230.72

 Zero-point correction=                           0.228395 (Hartree/Particle)
 Thermal correction to Energy=                    0.247952
 Thermal correction to Enthalpy=                  0.248896
 Thermal correction to Gibbs Free Energy=         0.177313
 Sum of electronic and zero-point Energies=          -1247.157712
 Sum of electronic and thermal Energies=             -1247.138156
 Sum of electronic and thermal Enthalpies=           -1247.137211
 Sum of electronic and thermal Free Energies=        -1247.208795

                     E (Thermal)             CV                S
                      KCal/Mol        Cal/Mol-Kelvin    Cal/Mol-Kelvin
 Total                  155.592             71.279            150.661
 Electronic               0.000              0.000              0.000
 Translational            0.889              2.981             43.120
 Rotational               0.889              2.981             34.832
 Vibrational            153.815             65.318             72.709
 Vibration     1          0.593              1.986              7.379
 Vibration     2          0.594              1.984              5.772
 Vibration     3          0.594              1.982              5.428
 Vibration     4          0.596              1.974              4.535
 Vibration     5          0.598              1.969              4.194
 Vibration     6          0.599              1.966              4.018
 Vibration     7          0.602              1.955              3.627
 Vibration     8          0.606              1.941              3.275
 Vibration     9          0.611              1.925              2.970
 Vibration    10          0.618              1.902              2.669
 Vibration    11          0.624              1.882              2.463
 Vibration    12          0.637              1.842              2.149
 Vibration    13          0.642              1.827              2.055
 Vibration    14          0.655              1.787              1.839
 Vibration    15          0.657              1.780              1.807
 Vibration    16          0.665              1.756              1.702
 Vibration    17          0.675              1.726              1.586
 Vibration    18          0.707              1.633              1.304
 Vibration    19          0.721              1.593              1.206
 Vibration    20          0.725              1.581              1.180
 Vibration    21          0.762              1.480              0.979
 Vibration    22          0.767              1.467              0.958
 Vibration    23          0.786              1.419              0.879
 Vibration    24          0.821              1.331              0.756
 Vibration    25          0.833              1.303              0.721
 Vibration    26          0.864              1.230              0.636
 Vibration    27          0.893              1.167              0.570
 Vibration    28          0.923              1.103              0.511
 Vibration    29          0.952              1.045              0.460
 Vibration    30          0.959              1.030              0.448
 Vibration    31          0.978              0.994              0.420

 Normal termination of Gaussian 09 at Wed Oct 31 13:01:31 2018.
