 Gaussian 09, Revision E.01,

 ----------------------------------------------------------------------
 # M062X/Gen 6D SCF=Tight INT(grid=ultrafine) OPT IOP(2/17=4) SCRF=(SMD
 ,Solvent=h2o) maxdisk=2684354560
 ----------------------------------------------------------------------

 --------------------------------
 34TFM_a1.M062X_6-31pGd_opt_water
 --------------------------------
 Symbolic Z-matrix:
 Charge = -1 Multiplicity = 1

 SCF Done:  E(RM062X) =  -1247.42722673     A.U. after   15 cycles
 SCF Done:  E(RM062X) =  -1247.45325389     A.U. after   14 cycles
 SCF Done:  E(RM062X) =  -1247.45303578     A.U. after   15 cycles
 SCF Done:  E(RM062X) =  -1247.45554183     A.U. after   10 cycles
 SCF Done:  E(RM062X) =  -1247.45605261     A.U. after   12 cycles
 SCF Done:  E(RM062X) =  -1247.45610451     A.U. after   12 cycles
 SCF Done:  E(RM062X) =  -1247.45617120     A.U. after   11 cycles
 SCF Done:  E(RM062X) =  -1247.45624877     A.U. after   13 cycles
 SCF Done:  E(RM062X) =  -1247.45627689     A.U. after   12 cycles
 SCF Done:  E(RM062X) =  -1247.45628893     A.U. after   13 cycles
 SCF Done:  E(RM062X) =  -1247.45986554     A.U. after   13 cycles
 SCF Done:  E(RM062X) =  -1247.45989225     A.U. after   12 cycles
 SCF Done:  E(RM062X) =  -1247.45990555     A.U. after   11 cycles
 SCF Done:  E(RM062X) =  -1247.45991733     A.U. after   12 cycles
 SCF Done:  E(RM062X) =  -1247.45992018     A.U. after   12 cycles
 SCF Done:  E(RM062X) =  -1247.45992069     A.U. after   11 cycles
 SCF Done:  E(RM062X) =  -1247.45992067     A.U. after   10 cycles
 SCF Done:  E(RM062X) =  -1247.45992069     A.U. after    9 cycles
 Optimization completed.
    -- Stationary point found.
 Normal termination of Gaussian 09 at Tue Oct 30 13:34:30 2018.
 Gaussian 09:  ES64L-G09RevE.01 30-Nov-2015

 ----------------------------------------------------------------------
 # M062X/Gen 6D SCF=Tight INT(grid=ultrafine) OPT IOP(2/17=4) SCRF=(SMD
 ,Solvent=h2o) Freq=Noraman maxdisk=2684354560 geom=check guess=read IO
 P(2/17=4)
 ----------------------------------------------------------------------

 --------------------------------
 34TFM_a1.M062X_6-31pGd_opt_water
 --------------------------------
 Structure from the checkpoint file:  "34TFM_a1.M062X_6-31pGd_opt_water.chk"
 Charge = -1 Multiplicity = 1

 SCF Done:  E(RM062X) =  -1247.45992069     A.U. after    1 cycles
 Optimization completed.
    -- Stationary point found.
 Normal termination of Gaussian 09 at Tue Oct 30 13:35:16 2018.

 ----------------------------------------------------------------------
 #N Geom=AllCheck Guess=TCheck SCRF=Check Test GenChk RM062X/ChkBas Fre
 q
 ----------------------------------------------------------------------

 Structure from the checkpoint file:  "34TFM_a1.M062X_6-31pGd_opt_water.chk"
 --------------------------------
 34TFM_a1.M062X_6-31pGd_opt_water
 --------------------------------
 Charge = -1 Multiplicity = 1

                         Standard orientation:
 ---------------------------------------------------------------------
 Center     Atomic      Atomic             Coordinates (Angstroms)
 Number     Number       Type             X           Y           Z
 ---------------------------------------------------------------------
      1          6           0       -7.695246    0.412359    0.295940
      2          6           0       -6.507906   -0.292303   -0.353197
      3          6           0       -5.187345    0.205203    0.216161
      4          7           0       -4.065497   -0.488874   -0.402140
      5          6           0       -2.773708   -0.239493    0.027586
      6          8           0       -2.548947    0.836348    0.651474
      7          7           0       -1.901435   -1.222426   -0.270814
      8          6           0       -0.554825   -1.024307   -0.142637
      9          6           0        0.114180    0.230193   -0.169509
     10          6           0        0.275548   -2.166199   -0.054854
     11          6           0        1.653213   -2.069003    0.033340
     12          6           0        2.296622   -0.827626    0.029245
     13          6           0        1.496187    0.323596   -0.093721
     14          1           0       -8.642619    0.054225   -0.118344
     15          1           0       -7.644391    1.494839    0.133048
     16          1           0       -7.712641    0.235886    1.377276
     17          1           0       -6.519342   -0.125945   -1.437318
     18          1           0       -6.585411   -1.375687   -0.193662
     19          1           0       -5.180216    0.066214    1.308043
     20          1           0       -5.087817    1.279172    0.028980
     21          1           0       -4.237631   -1.459268   -0.642325
     22          1           0       -0.470416    1.134164   -0.269258
     23          1           0       -0.192654   -3.146353   -0.051703
     24          1           0        2.243458   -2.976429    0.111563
     25          6           0        2.087284    1.711501   -0.117772
     26          6           0        3.791057   -0.803611    0.114283
     27          9           0        4.263638    0.172103    0.918323
     28          9           0        4.394917   -0.624729   -1.085093
     29          9           0        4.284563   -1.960134    0.599035
     30          9           0        1.231593    2.624346   -0.609515
     31          9           0        3.198100    1.790611   -0.876109
     32          9           0        2.429347    2.147317    1.113738
 ---------------------------------------------------------------------

 SCF Done:  E(RM062X) =  -1247.45992069     A.U. after    1 cycles

 The electronic state is 1-A.
 Alpha  occ. eigenvalues --  -25.30628 -25.30557 -25.30387 -25.30269 -25.30269
 Alpha  occ. eigenvalues --  -25.29868 -19.59759 -14.75830 -14.71542 -10.81708
 Alpha  occ. eigenvalues --  -10.81443 -10.65164 -10.59284 -10.59161 -10.57880
 Alpha  occ. eigenvalues --  -10.56609 -10.56443 -10.55578 -10.54819 -10.53630
 Alpha  occ. eigenvalues --  -10.52707  -1.47293  -1.46679  -1.38016  -1.37635
 Alpha  occ. eigenvalues --   -1.37476  -1.37092  -1.14179  -1.01241  -1.00030
 Alpha  occ. eigenvalues --   -0.96476  -0.88759  -0.87934  -0.86165  -0.81452
 Alpha  occ. eigenvalues --   -0.79775  -0.76233  -0.72838  -0.72172  -0.69614
 Alpha  occ. eigenvalues --   -0.69481  -0.69169  -0.68775  -0.67254  -0.66965
 Alpha  occ. eigenvalues --   -0.64596  -0.61073  -0.58525  -0.58072  -0.57816
 Alpha  occ. eigenvalues --   -0.57257  -0.57100  -0.55245  -0.54005  -0.53870
 Alpha  occ. eigenvalues --   -0.53707  -0.53379  -0.52748  -0.52363  -0.51438
 Alpha  occ. eigenvalues --   -0.51270  -0.51135  -0.50436  -0.49560  -0.48202
 Alpha  occ. eigenvalues --   -0.47664  -0.46064  -0.45385  -0.43976  -0.43616
 Alpha  occ. eigenvalues --   -0.41737  -0.41181  -0.39114  -0.38724  -0.37048
 Alpha  occ. eigenvalues --   -0.34735  -0.32324  -0.30809  -0.30221  -0.24350
 Alpha virt. eigenvalues --   -0.00330   0.01229   0.02221   0.03096   0.03269
 Alpha virt. eigenvalues --    0.04095   0.04162   0.04506   0.05005   0.05235
 Alpha virt. eigenvalues --    0.06192   0.06259   0.06853   0.07244   0.07552

 Mulliken charges:
               1
     1  C   -0.747748
     2  C   -0.367756
     3  C   -0.341551
     4  N   -0.605862
     5  C    0.780445
     6  O   -0.828245
     7  N   -0.632115
     8  C    0.163753
     9  C    0.107845
    10  C   -0.430763
    11  C   -0.189031
    12  C   -1.097692
    13  C   -0.829947
    14  H    0.220386
    15  H    0.219500
    16  H    0.220117
    17  H    0.228397
    18  H    0.223664
    19  H    0.210762
    20  H    0.224550
    21  H    0.436557
    22  H    0.267661
    23  H    0.245693
    24  H    0.268390
    25  C    1.558087
    26  C    1.519455
    27  F   -0.302437
    28  F   -0.276413
    29  F   -0.338292
    30  F   -0.334294
    31  F   -0.300833
    32  F   -0.272282
 Sum of Mulliken charges =  -1.00000

 Dipole moment (field-independent basis, Debye):
    X=             -0.6477    Y=             -2.9553    Z=             -1.0467  Tot=              3.2014
 Quadrupole moment (field-independent basis, Debye-Ang):
   XX=           -146.9254   YY=           -128.3600   ZZ=           -129.5606
   XY=              1.6825   XZ=              2.3482   YZ=             -3.3897

  Exact polarizability: 337.509 -13.052 238.188   6.441   6.764 168.459
 Approx polarizability: 259.397  -5.697 205.392   6.584   5.155 149.518

                      1                      2                      3
                      A                      A                      A
 Frequencies --     23.3428                38.2771                49.4113
 Red. masses --      6.4249                 5.1871                 3.1218
 Frc consts  --      0.0021                 0.0045                 0.0045
 IR Inten    --      3.1678                 6.0669                 2.7042

                      4                      5                      6
                      A                      A                      A
 Frequencies --     62.0846                73.8060                82.5738
 Red. masses --      9.2137                 4.6221                 2.5728
 Frc consts  --      0.0209                 0.0148                 0.0103
 IR Inten    --      2.9146                 3.1560                11.1053

                      7                      8                      9
                      A                      A                      A
 Frequencies --     89.8593               107.9595               127.0855
 Red. masses --     18.6496                 4.9745                 6.1380
 Frc consts  --      0.0887                 0.0342                 0.0584
 IR Inten    --      0.0608                 4.0885                 1.3013

                     10                     11                     12
                      A                      A                      A
 Frequencies --    153.7528               166.7039               174.9629
 Red. masses --      6.4395                10.8315                 3.5906
 Frc consts  --      0.0897                 0.1773                 0.0648
 IR Inten    --      4.7639                 0.9234                17.2446

                     13                     14                     15
                      A                      A                      A
 Frequencies --    203.8349               236.2228               241.6968
 Red. masses --      8.3403                 3.3476                 6.3959
 Frc consts  --      0.2042                 0.1101                 0.2201
 IR Inten    --      2.2790                 8.9659                 7.8621

                     16                     17                     18
                      A                      A                      A
 Frequencies --    244.4281               280.7658               317.3957
 Red. masses --      1.4905                 6.5018                 7.1353
 Frc consts  --      0.0525                 0.3020                 0.4235
 IR Inten    --      1.8987                 0.6805                 5.0772

                     19                     20                     21
                      A                      A                      A
 Frequencies --    339.2356               351.3687               391.3462
 Red. masses --     14.6843                 4.7574                 5.7360
 Frc consts  --      0.9957                 0.3461                 0.5176
 IR Inten    --      0.1834                20.5191                42.4488

                     22                     23                     24
                      A                      A                      A
 Frequencies --    401.6755               423.1036               461.6648
 Red. masses --      8.5888                 5.8488                 5.5173
 Frc consts  --      0.8165                 0.6169                 0.6928
 IR Inten    --     16.0810                 7.3954                14.6168

                     25                     26                     27
                      A                      A                      A
 Frequencies --    474.3972               489.6017               534.7972
 Red. masses --      5.3012                 3.1961                 7.3621
 Frc consts  --      0.7029                 0.4514                 1.2406
 IR Inten    --      2.0943                41.6677                20.0619

                     28                     29                     30
                      A                      A                      A
 Frequencies --    543.2441               569.5833               600.0995
 Red. masses --      2.1137                 8.2922                 5.7912
 Frc consts  --      0.3675                 1.5850                 1.2288
 IR Inten    --    256.9328                38.0693                28.7059

                     31                     32                     33
                      A                      A                      A
 Frequencies --    617.7349               655.3877               665.2764
 Red. masses --      8.1465                 6.9157                 6.0765
 Frc consts  --      1.8316                 1.7502                 1.5845
 IR Inten    --      5.0191                14.2448                 4.1648

                     34                     35                     36
                      A                      A                      A
 Frequencies --    680.1476               752.6253               759.2997
 Red. masses --      6.6046                 4.6564                 1.2932
 Frc consts  --      1.8001                 1.5540                 0.4393
 IR Inten    --     24.0568                 2.3157                48.7826

                     37                     38                     39
                      A                      A                      A
 Frequencies --    768.0641               771.4337               782.3479
 Red. masses --      4.2276                 7.8137                 8.4458
 Frc consts  --      1.4694                 2.7397                 3.0457
 IR Inten    --     73.6542                22.1777                73.1195

                     40                     41                     42
                      A                      A                      A
 Frequencies --    806.5847               863.9736               904.3491
 Red. masses --      6.3830                 1.5346                 1.5957
 Frc consts  --      2.4467                 0.6749                 0.7689
 IR Inten    --     41.3631                73.3693                59.5871

                     43                     44                     45
                      A                      A                      A
 Frequencies --    905.8395               928.4790               947.4768
 Red. masses --      1.1625                 2.0625                 3.6666
 Frc consts  --      0.5620                 1.0476                 1.9393
 IR Inten    --     19.8604                 5.9354                34.3598

                     46                     47                     48
                      A                      A                      A
 Frequencies --    999.1963              1029.8207              1038.3746
 Red. masses --      1.3336                 4.6527                 6.1041
 Frc consts  --      0.7844                 2.9072                 3.8778
 IR Inten    --      4.4883                47.3446                69.8403

                     49                     50                     51
                      A                      A                      A
 Frequencies --   1081.2865              1114.7540              1140.3190
 Red. masses --      2.5378                 3.6279                 2.2666
 Frc consts  --      1.7482                 2.6562                 1.7365
 IR Inten    --     39.5801               529.3869               103.8841

                     52                     53                     54
                      A                      A                      A
 Frequencies --   1141.7117              1149.6739              1161.4519
 Red. masses --      8.9226                 2.8658                10.0309
 Frc consts  --      6.8526                 2.2317                 7.9725
 IR Inten    --    201.5100               120.2131               665.4310

                     55                     56                     57
                      A                      A                      A
 Frequencies --   1167.9229              1184.0078              1192.6045
 Red. masses --      1.8670                 2.6726                 2.0971
 Frc consts  --      1.5005                 2.2075                 1.7574
 IR Inten    --      4.2924               276.4687               292.0923

                     58                     59                     60
                      A                      A                      A
 Frequencies --   1204.0593              1260.4801              1279.9744
 Red. masses --     10.7934                 1.6512                 1.3884
 Frc consts  --      9.2194                 1.5457                 1.3402
 IR Inten    --    485.1537               238.5411               423.2374

                     61                     62                     63
                      A                      A                      A
 Frequencies --   1302.7829              1319.9044              1325.2260
 Red. masses --      1.5245                 3.5161                 1.1546
 Frc consts  --      1.5245                 3.6091                 1.1947
 IR Inten    --    410.0610               616.4625               221.7709

                     64                     65                     66
                      A                      A                      A
 Frequencies --   1334.3677              1343.6144              1354.9238
 Red. masses --      2.8506                 3.1420                 2.4118
 Frc consts  --      2.9904                 3.3420                 2.6087
 IR Inten    --     93.8828               785.8110               421.1048

                     67                     68                     69
                      A                      A                      A
 Frequencies --   1403.6858              1421.6115              1440.0035
 Red. masses --      2.8594                 1.3354                 2.1999
 Frc consts  --      3.3194                 1.5900                 2.6877
 IR Inten    --    911.8191                96.3969               737.2374

                     70                     71                     72
                      A                      A                      A
 Frequencies --   1473.0452              1489.8931              1496.1643
 Red. masses --      5.7980                 1.2541                 1.5897
 Frc consts  --      7.4124                 1.6402                 2.0967
 IR Inten    --     95.8913               264.9239               489.2215

                     73                     74                     75
                      A                      A                      A
 Frequencies --   1503.3963              1515.2879              1532.8088
 Red. masses --      1.0406                 1.1589                 1.1280
 Frc consts  --      1.3858                 1.5677                 1.5615
 IR Inten    --     11.7105               130.1924                86.0692

                     76                     77                     78
                      A                      A                      A
 Frequencies --   1558.9462              1571.1363              1626.2130
 Red. masses --      4.1484                 3.7770                 7.9133
 Frc consts  --      5.9401                 5.4933                12.3300
 IR Inten    --   1126.8960               192.4145                 6.4120

                     79                     80                     81
                      A                      A                      A
 Frequencies --   1677.2481              3039.0708              3068.8442
 Red. masses --      6.8707                 1.0704                 1.0609
 Frc consts  --     11.3879                 5.8245                 5.8869
 IR Inten    --    207.1732                96.3367                54.6723

                     82                     83                     84
                      A                      A                      A
 Frequencies --   3074.4913              3103.9679              3123.9652
 Red. masses --      1.0364                 1.0982                 1.0972
 Frc consts  --      5.7720                 6.2341                 6.3088
 IR Inten    --     43.9437                16.0247                62.0232

                     85                     86                     87
                      A                      A                      A
 Frequencies --   3143.2367              3152.9218              3229.9593
 Red. masses --      1.1036                 1.1021                 1.0900
 Frc consts  --      6.4241                 6.4552                 6.6999
 IR Inten    --    101.9884                52.9569                10.2140

                     88                     89                     90
                      A                      A                      A
 Frequencies --   3250.4303              3291.2363              3606.8029
 Red. masses --      1.0943                 1.0906                 1.0771
 Frc consts  --      6.8117                 6.9605                 8.2559
 IR Inten    --      3.1231                 4.7088                67.3595

 - Thermochemistry -
 -------------------
 Temperature   298.150 Kelvin.  Pressure   1.00000 Atm.
 Atom     1 has atomic number  6 and mass  12.00000

 Molecular mass:   313.07756 amu.
 Principal axes and moments of inertia in atomic units:
                           1         2         3
     Eigenvalues --  2543.47494********************
           X            0.99999  -0.00365  -0.00119
           Y            0.00365   0.99998   0.00543
           Z            0.00117  -0.00544   0.99998
 This molecule is an asymmetric top.
 Rotational symmetry number  1.
 Warning -- assumption of classical behavior for rotation
           may cause significant error
 Rotational temperatures (Kelvin)      0.03405     0.00575     0.00515
 Rotational constants (GHZ):           0.70956     0.11971     0.10725
 Zero-point vibrational energy     598037.9 (Joules/Mol)
                                  142.93448 (Kcal/Mol)
 Warning -- explicit consideration of  31 degrees of freedom as
           vibrations may cause significant error
 Vibrational temperatures:     33.59    55.07    71.09    89.33   106.19
          (Kelvin)            118.81   129.29   155.33   182.85   221.22
                              239.85   251.73   293.27   339.87   347.75
                              351.68   403.96   456.66   488.08   505.54
                              563.06   577.92   608.75   664.23   682.55
                              704.43   769.45   781.61   819.50   863.41
                              888.78   942.96   957.18   978.58  1082.86
                             1092.46  1105.07  1109.92  1125.62  1160.49
                             1243.06  1301.15  1303.30  1335.87  1363.21
                             1437.62  1481.68  1493.99  1555.73  1603.88
                             1640.66  1642.67  1654.12  1671.07  1680.38
                             1703.52  1715.89  1732.37  1813.55  1841.60
                             1874.41  1899.05  1906.70  1919.86  1933.16
                             1949.43  2019.59  2045.38  2071.84  2119.38
                             2143.62  2152.64  2163.05  2180.16  2205.37
                             2242.97  2260.51  2339.75  2413.18  4372.54
                             4415.38  4423.50  4465.91  4494.68  4522.41
                             4536.35  4647.19  4676.64  4735.35  5189.38

 Zero-point correction=                           0.227781 (Hartree/Particle)
 Thermal correction to Energy=                    0.247344
 Thermal correction to Enthalpy=                  0.248288
 Thermal correction to Gibbs Free Energy=         0.177676
 Sum of electronic and zero-point Energies=          -1247.232140
 Sum of electronic and thermal Energies=             -1247.212577
 Sum of electronic and thermal Enthalpies=           -1247.211633
 Sum of electronic and thermal Free Energies=        -1247.282245

                     E (Thermal)             CV                S
                      KCal/Mol        Cal/Mol-Kelvin    Cal/Mol-Kelvin
 Total                  155.211             71.537            148.615
 Electronic               0.000              0.000              0.000
 Translational            0.889              2.981             43.120
 Rotational               0.889              2.981             34.822
 Vibrational            153.433             65.575             70.673
 Vibration     1          0.593              1.985              6.327
 Vibration     2          0.594              1.982              5.346
 Vibration     3          0.595              1.978              4.841
 Vibration     4          0.597              1.972              4.390
 Vibration     5          0.599              1.966              4.049
 Vibration     6          0.600              1.961              3.829
 Vibration     7          0.602              1.956              3.663
 Vibration     8          0.606              1.943              3.305
 Vibration     9          0.611              1.926              2.990
 Vibration    10          0.619              1.898              2.625
 Vibration    11          0.624              1.883              2.472
 Vibration    12          0.627              1.873              2.381
 Vibration    13          0.640              1.834              2.098
 Vibration    14          0.655              1.785              1.831
 Vibration    15          0.658              1.776              1.790
 Vibration    16          0.660              1.772              1.770
 Vibration    17          0.680              1.709              1.529
 Vibration    18          0.704              1.640              1.323
 Vibration    19          0.719              1.597              1.216
 Vibration    20          0.728              1.572              1.160
 Vibration    21          0.759              1.489              0.995
 Vibration    22          0.767              1.467              0.957
 Vibration    23          0.785              1.420              0.881
 Vibration    24          0.819              1.335              0.761
 Vibration    25          0.831              1.307              0.725
 Vibration    26          0.845              1.273              0.685
 Vibration    27          0.890              1.173              0.577
 Vibration    28          0.898              1.154              0.558
 Vibration    29          0.926              1.097              0.505
 Vibration    30          0.958              1.032              0.449
 Vibration    31          0.978              0.994              0.420

 Optimization completed.
    -- Stationary point found.
 Normal termination of Gaussian 09 at Tue Oct 30 14:08:57 2018.
