 Gaussian 09, Revision E.01,

 ----------------------------------------------------------------------
 # M062X/Gen 6D SCF=Tight INT(grid=ultrafine) OPT IOP(2/17=4) maxdisk=2
 147483648
 ----------------------------------------------------------------------

 ----------
 diph.M062X
 ----------
 Symbolic Z-matrix:
 Charge =  0 Multiplicity = 1

 SCF Done:  E(RM062X) =  -687.013704295     A.U. after   15 cycles
 SCF Done:  E(RM062X) =  -687.055591457     A.U. after   13 cycles
 SCF Done:  E(RM062X) =  -687.066875727     A.U. after   13 cycles
 SCF Done:  E(RM062X) =  -687.069373652     A.U. after   13 cycles
 SCF Done:  E(RM062X) =  -687.068963152     A.U. after   12 cycles
 SCF Done:  E(RM062X) =  -687.070414922     A.U. after    9 cycles
 SCF Done:  E(RM062X) =  -687.071237644     A.U. after   12 cycles
 SCF Done:  E(RM062X) =  -687.071524380     A.U. after   13 cycles
 SCF Done:  E(RM062X) =  -687.071556808     A.U. after   12 cycles
 SCF Done:  E(RM062X) =  -687.071618265     A.U. after   12 cycles
 SCF Done:  E(RM062X) =  -687.071741549     A.U. after    8 cycles
 SCF Done:  E(RM062X) =  -687.071741709     A.U. after    8 cycles
 SCF Done:  E(RM062X) =  -687.071741973     A.U. after    8 cycles
 SCF Done:  E(RM062X) =  -687.071742070     A.U. after    7 cycles
 SCF Done:  E(RM062X) =  -687.071742128     A.U. after    7 cycles
 SCF Done:  E(RM062X) =  -687.071742183     A.U. after    7 cycles
 SCF Done:  E(RM062X) =  -687.071742281     A.U. after    8 cycles
 SCF Done:  E(RM062X) =  -687.071742354     A.U. after    8 cycles
 SCF Done:  E(RM062X) =  -687.071742359     A.U. after    6 cycles
 Optimization completed.
    -- Stationary point found.
 Normal termination of Gaussian 09 at Tue Aug 21 18:16:09 2018.
 Gaussian 09:  ES64L-G09RevE.01 30-Nov-2015

 ----------------------------------------------------------------------
 # M062X/Gen 6D SCF=Tight INT(grid=ultrafine) Freq=Noraman geom=check g
 uess=read IOP(2/17=4) maxdisk=2147483648
 ----------------------------------------------------------------------

 ----------
 diph.M062X
 ----------
 Structure from the checkpoint file:  "diph.M062X.chk"
 Charge =  0 Multiplicity = 1

                         Standard orientation:
 ---------------------------------------------------------------------
 Center     Atomic      Atomic             Coordinates (Angstroms)
 Number     Number       Type             X           Y           Z
 ---------------------------------------------------------------------
      1          6           0       -5.195026   -0.387854   -0.014190
      2          6           0       -4.816564    0.943013    0.140275
      3          6           0       -4.207729   -1.356483   -0.164499
      4          6           0       -2.855611   -1.025111   -0.164047
      5          6           0       -2.482023    0.314013   -0.005122
      6          6           0       -3.473107    1.291624    0.145504
      7          7           0       -1.146961    0.760035   -0.003788
      8          6           0       -0.000001   -0.013264   -0.000038
      9          8           0       -0.000002   -1.229120   -0.000025
     10          7           0        1.146960    0.760030    0.003687
     11          6           0        2.482022    0.314008    0.005093
     12          6           0        2.855606   -1.025115    0.164019
     13          6           0        4.207726   -1.356484    0.164532
     14          6           0        5.195028   -0.387854    0.014279
     15          6           0        4.816570    0.943015   -0.140194
     16          6           0        3.473113    1.291623   -0.145483
     17          1           0       -6.244007   -0.664503   -0.017287
     18          1           0       -5.567816    1.717691    0.258886
     19          1           0       -4.486978   -2.398640   -0.286733
     20          1           0       -2.097528   -1.785615   -0.278638
     21          1           0       -3.185176    2.333640    0.268277
     22          1           0       -1.040565    1.758288    0.108415
     23          1           0        1.040569    1.758285   -0.108504
     24          1           0        2.097519   -1.785622    0.278564
     25          1           0        4.486970   -2.398643    0.286768
     26          1           0        6.244009   -0.664499    0.017423
     27          1           0        5.567827    1.717693   -0.258766
     28          1           0        3.185184    2.333638   -0.268266
 ---------------------------------------------------------------------

 SCF Done:  E(RM062X) =  -687.071742359     A.U. after    1 cycles

 The electronic state is 1-A.
 Alpha  occ. eigenvalues --  -19.61313 -14.80461 -14.80460 -10.69443 -10.60018
 Alpha  occ. eigenvalues --  -10.60018 -10.55308 -10.55308 -10.55163 -10.55163
 Alpha  occ. eigenvalues --  -10.54738 -10.54738 -10.54290 -10.54290 -10.54067
 Alpha  occ. eigenvalues --  -10.54067  -1.18354  -1.06843  -1.04417  -0.95440
 Alpha  occ. eigenvalues --   -0.94191  -0.85349  -0.84101  -0.83999  -0.82075
 Alpha  occ. eigenvalues --   -0.73683  -0.70768  -0.69936  -0.67834  -0.65763
 Alpha  occ. eigenvalues --   -0.62863  -0.61771  -0.59608  -0.56375  -0.54950
 Alpha  occ. eigenvalues --   -0.53652  -0.52129  -0.50364  -0.50180  -0.49640
 Alpha  occ. eigenvalues --   -0.49492  -0.48385  -0.47826  -0.46216  -0.43643
 Alpha  occ. eigenvalues --   -0.42186  -0.41883  -0.40432  -0.39975  -0.38197
 Alpha  occ. eigenvalues --   -0.36781  -0.34043  -0.30230  -0.30186  -0.27947
 Alpha  occ. eigenvalues --   -0.25700
 Alpha virt. eigenvalues --    0.02515   0.03741   0.03760   0.05372   0.08511
 Alpha virt. eigenvalues --    0.12080   0.13460   0.13857   0.15891   0.19495
 Alpha virt. eigenvalues --    0.20673   0.20695   0.21090   0.22253   0.22693

 Mulliken charges:
               1
     1  C   -0.162240
     2  C   -0.165964
     3  C   -0.178606
     4  C   -0.173815
     5  C    0.335416
     6  C   -0.224727
     7  N   -0.814236
     8  C    0.882102
     9  O   -0.530323
    10  N   -0.814238
    11  C    0.335417
    12  C   -0.173816
    13  C   -0.178606
    14  C   -0.162239
    15  C   -0.165964
    16  C   -0.224727
    17  H    0.161313
    18  H    0.163518
    19  H    0.166592
    20  H    0.222748
    21  H    0.147763
    22  H    0.346347
    23  H    0.346347
    24  H    0.222749
    25  H    0.166592
    26  H    0.161314
    27  H    0.163518
    28  H    0.147763
 Sum of Mulliken charges =  -0.00000

 Dipole moment (field-independent basis, Debye):
    X=              0.0000    Y=              3.6405    Z=              0.0000  Tot=              3.6405
 Quadrupole moment (field-independent basis, Debye-Ang):
   XX=            -82.1556   YY=            -80.5128   ZZ=            -98.9152
   XY=              0.0001   XZ=             -0.5911   YZ=             -0.0000

  Exact polarizability: 244.814   0.000 151.694  -1.984   0.000  52.106
 Approx polarizability: 253.036   0.000 219.090  -2.913   0.000  72.565

                      1                      2                      3
                      A                      A                      A
 Frequencies --     14.2474                25.9870                46.7663
 Red. masses --      3.5819                 4.9845                 8.3763
 Frc consts  --      0.0004                 0.0020                 0.0108
 IR Inten    --      0.0294                 0.2770                 8.9505

                      4                      5                      6
                      A                      A                      A
 Frequencies --     70.3231                88.6876               215.0647
 Red. masses --      5.1065                 5.2615                 4.6605
 Frc consts  --      0.0149                 0.0244                 0.1270
 IR Inten    --      0.0087                 0.0029                 8.0052

                      7                      8                      9
                      A                      A                      A
 Frequencies --    231.1024               242.4901               244.1737
 Red. masses --      2.1533                 5.0131                 4.5825
 Frc consts  --      0.0678                 0.1737                 0.1610
 IR Inten    --      0.7279                 0.3607                 4.1431

                     10                     11                     12
                      A                      A                      A
 Frequencies --    300.3691               368.2081               371.8510
 Red. masses --      1.6693                 8.8843                 5.2397
 Frc consts  --      0.0887                 0.7097                 0.4269
 IR Inten    --      4.6259                10.1747                 0.0575

                     13                     14                     15
                      A                      A                      A
 Frequencies --    417.3151               417.6897               502.7217
 Red. masses --      3.0704                 3.0645                 1.2484
 Frc consts  --      0.3150                 0.3150                 0.1859
 IR Inten    --      0.3441                 0.0095               170.2478

                     16                     17                     18
                      A                      A                      A
 Frequencies --    519.5762               520.9344               529.6700
 Red. masses --      3.0537                 3.0276                 6.0412
 Frc consts  --      0.4857                 0.4841                 0.9986
 IR Inten    --      0.0379                15.4589                16.7037

                     19                     20                     21
                      A                      A                      A
 Frequencies --    627.6657               629.8178               651.2659
 Red. masses --      6.3096                 6.3953                 6.4979
 Frc consts  --      1.4646                 1.4947                 1.6238
 IR Inten    --      1.9935                 0.0573                 0.4992

                     22                     23                     24
                      A                      A                      A
 Frequencies --    708.3425               709.7137               742.7337
 Red. masses --      2.2027                 2.2135                 7.5635
 Frc consts  --      0.6512                 0.6569                 2.4583
 IR Inten    --      0.4476                41.6562                 5.5041

                     25                     26                     27
                      A                      A                      A
 Frequencies --    776.6151               778.1631               808.0959
 Red. masses --      1.6217                 1.6568                 6.6321
 Frc consts  --      0.5763                 0.5911                 2.5517
 IR Inten    --      1.5443               122.4478                 0.3608

                     28                     29                     30
                      A                      A                      A
 Frequencies --    828.5609               855.6665               856.4661
 Red. masses --      5.8110                 1.2650                 1.2684
 Frc consts  --      2.3505                 0.5457                 0.5482
 IR Inten    --      8.3502                 0.0206                 0.0247

                     31                     32                     33
                      A                      A                      A
 Frequencies --    917.4900               924.2149               924.9014
 Red. masses --      4.5819                 1.4729                 1.4035
 Frc consts  --      2.2725                 0.7413                 0.7074
 IR Inten    --      0.0733                 0.1909                14.1909

                     34                     35                     36
                      A                      A                      A
 Frequencies --    985.8152               985.9612              1015.8548
 Red. masses --      1.3246                 1.3242                 2.7904
 Frc consts  --      0.7584                 0.7585                 1.6966
 IR Inten    --      0.0002                 0.3813                 0.5280

                     37                     38                     39
                      A                      A                      A
 Frequencies --   1016.0462              1016.6686              1016.9029
 Red. masses --      1.3666                 1.6469                 4.2473
 Frc consts  --      0.8312                 1.0030                 2.5877
 IR Inten    --      0.0038                 1.1933                 0.0100

                     40                     41                     42
                      A                      A                      A
 Frequencies --   1063.5987              1075.1039              1089.3323
 Red. masses --      3.8652                 2.1253                 2.2757
 Frc consts  --      2.5762                 1.4473                 1.5910
 IR Inten    --      0.0756                 4.6279                 0.4147

                     43                     44                     45
                      A                      A                      A
 Frequencies --   1131.6414              1137.7111              1187.6260
 Red. masses --      1.4824                 1.5685                 1.1106
 Frc consts  --      1.1185                 1.1962                 0.9229
 IR Inten    --      2.6751                12.5734                 2.3558

                     46                     47                     48
                      A                      A                      A
 Frequencies --   1187.9752              1215.8000              1217.8656
 Red. masses --      1.1030                 1.1651                 1.1184
 Frc consts  --      0.9172                 1.0147                 0.9773
 IR Inten    --      2.4579                70.6067                 0.4954

                     49                     50                     51
                      A                      A                      A
 Frequencies --   1233.0972              1275.8033              1304.8281
 Red. masses --      1.8415                 3.0094                 2.5867
 Frc consts  --      1.6497                 2.8860                 2.5948
 IR Inten    --    317.5398                87.7169                 7.1440

                     52                     53                     54
                      A                      A                      A
 Frequencies --   1354.0266              1359.7193              1365.4677
 Red. masses --      3.2140                 1.5962                 1.6529
 Frc consts  --      3.4718                 1.7388                 1.8157
 IR Inten    --    282.3321                 3.6250                 0.2574

                     55                     56                     57
                      A                      A                      A
 Frequencies --   1369.8724              1490.2840              1502.3338
 Red. masses --      3.2936                 2.0354                 2.4778
 Frc consts  --      3.6415                 2.6634                 3.2949
 IR Inten    --      0.0676                17.9845               268.6030

                     58                     59                     60
                      A                      A                      A
 Frequencies --   1559.0029              1562.8945              1594.4313
 Red. masses --      2.4617                 2.2292                 2.0725
 Frc consts  --      3.5251                 3.2081                 3.1043
 IR Inten    --    280.1478                 0.3308                 0.1624

                     61                     62                     63
                      A                      A                      A
 Frequencies --   1595.5015              1685.4260              1688.5503
 Red. masses --      2.2851                 5.3882                 4.9757
 Frc consts  --      3.4273                 9.0181                 8.3585
 IR Inten    --   1308.6789                61.8026                13.2466

                     64                     65                     66
                      A                      A                      A
 Frequencies --   1700.0924              1702.6923              1847.9317
 Red. masses --      6.0498                 5.9842                 8.8447
 Frc consts  --     10.3023                10.2217                17.7953
 IR Inten    --     95.7638                 0.2021               188.4105

                     67                     68                     69
                      A                      A                      A
 Frequencies --   3198.4398              3198.5280              3224.7880
 Red. masses --      1.0891                 1.0891                 1.0875
 Frc consts  --      6.5643                 6.5648                 6.6634
 IR Inten    --     14.0482                15.1892                 0.3892

                     70                     71                     72
                      A                      A                      A
 Frequencies --   3224.8507              3232.0408              3232.0657
 Red. masses --      1.0876                 1.0929                 1.0929
 Frc consts  --      6.6638                 6.7261                 6.7262
 IR Inten    --      0.6734                 1.3962                37.1137

                     73                     74                     75
                      A                      A                      A
 Frequencies --   3249.3019              3249.3795              3306.4356
 Red. masses --      1.0976                 1.0976                 1.0928
 Frc consts  --      6.8276                 6.8279                 7.0389
 IR Inten    --     33.3607                 0.6168                11.4291

                     76                     77                     78
                      A                      A                      A
 Frequencies --   3306.6888              3639.5367              3652.1292
 Red. masses --      1.0927                 1.0773                 1.0766
 Frc consts  --      7.0394                 8.4074                 8.4602
 IR Inten    --      1.4446                 4.6688                35.8622

 - Thermochemistry -
 -------------------
 Temperature   298.150 Kelvin.  Pressure   1.00000 Atm.
 Atom     1 has atomic number  6 and mass  12.00000

 Molecular mass:   212.09496 amu.
 Principal axes and moments of inertia in atomic units:
                           1         2         3
     Eigenvalues --   792.933758982.598739754.76639
           X            1.00000   0.00000  -0.00034
           Y           -0.00000   1.00000   0.00000
           Z            0.00034  -0.00000   1.00000
 This molecule is an asymmetric top.
 Rotational symmetry number  1.
 Warning -- assumption of classical behavior for rotation
           may cause significant error
 Rotational temperatures (Kelvin)      0.10923     0.00964     0.00888
 Rotational constants (GHZ):           2.27603     0.20092     0.18501
 Zero-point vibrational energy     598832.2 (Joules/Mol)
                                  143.12434 (Kcal/Mol)
 Warning -- explicit consideration of  18 degrees of freedom as
           vibrations may cause significant error
 Vibrational temperatures:     20.50    37.39    67.29   101.18   127.60
          (Kelvin)            309.43   332.50   348.89   351.31   432.16
                              529.77   535.01   600.42   600.96   723.30
                              747.55   749.51   762.08   903.07   906.17
                              937.03  1019.15  1021.12  1068.63  1117.37
                             1119.60  1162.67  1192.11  1231.11  1232.26
                             1320.06  1329.74  1330.73  1418.37  1418.58
                             1461.59  1461.86  1462.76  1463.09  1530.28
                             1546.83  1567.30  1628.18  1636.91  1708.73
                             1709.23  1749.26  1752.23  1774.15  1835.59
                             1877.35  1948.14  1956.33  1964.60  1970.94
                             2144.18  2161.52  2243.05  2248.65  2294.03
                             2295.57  2424.95  2429.44  2446.05  2449.79
                             2658.76  4601.84  4601.96  4639.74  4639.84
                             4650.18  4650.22  4675.01  4675.13  4757.22
                             4757.58  5236.47  5254.59

 Zero-point correction=                           0.228083 (Hartree/Particle)
 Thermal correction to Energy=                    0.241524
 Thermal correction to Enthalpy=                  0.242468
 Thermal correction to Gibbs Free Energy=         0.185025
 Sum of electronic and zero-point Energies=           -686.843659
 Sum of electronic and thermal Energies=              -686.830219
 Sum of electronic and thermal Enthalpies=            -686.829275
 Sum of electronic and thermal Free Energies=         -686.886717

                     E (Thermal)             CV                S
                      KCal/Mol        Cal/Mol-Kelvin    Cal/Mol-Kelvin
 Total                  151.558             51.807            120.898
 Electronic               0.000              0.000              0.000
 Translational            0.889              2.981             41.959
 Rotational               0.889              2.981             32.608
 Vibrational            149.781             45.845             46.331
 Vibration     1          0.593              1.986              7.308
 Vibration     2          0.593              1.985              6.114
 Vibration     3          0.595              1.979              4.950
 Vibration     4          0.598              1.968              4.144
 Vibration     5          0.602              1.957              3.689
 Vibration     6          0.645              1.818              2.000
 Vibration     7          0.653              1.793              1.870
 Vibration     8          0.659              1.775              1.785
 Vibration     9          0.660              1.772              1.772
 Vibration    10          0.693              1.673              1.415
 Vibration    11          0.741              1.538              1.087
 Vibration    12          0.744              1.530              1.072
 Vibration    13          0.780              1.433              0.901
 Vibration    14          0.781              1.432              0.900
 Vibration    15          0.858              1.244              0.651
 Vibration    16          0.875              1.207              0.611
 Vibration    17          0.876              1.204              0.608
 Vibration    18          0.885              1.184              0.588

 Optimization completed.
    -- Stationary point found.
 Normal termination of Gaussian 09 at Tue Aug 21 18:35:32 2018.
