 Gaussian 09, Revision E.01,

 ----------------------------------------------------------------------
 # M062X/Gen 6D SCF=Tight INT(grid=ultrafine) OPT IOP(2/17=4) SCRF=(SMD
 ,Solvent=h2o) maxdisk=2684354560
 ----------------------------------------------------------------------

 -----------------------------------
 3SF55Chloro.M062X_6-31pGd_opt_water
 -----------------------------------
 Symbolic Z-matrix:
 Charge =  0 Multiplicity = 1

 SCF Done:  E(RM062X) =  -1930.06871827     A.U. after   15 cycles
 SCF Done:  E(RM062X) =  -1930.10168501     A.U. after   13 cycles
 SCF Done:  E(RM062X) =  -1930.10977038     A.U. after   13 cycles
 SCF Done:  E(RM062X) =  -1930.11027271     A.U. after   12 cycles
 SCF Done:  E(RM062X) =  -1930.11107272     A.U. after   12 cycles
 SCF Done:  E(RM062X) =  -1930.11305065     A.U. after   17 cycles
 SCF Done:  E(RM062X) =  -1930.11352080     A.U. after   15 cycles
 SCF Done:  E(RM062X) =  -1930.10392093     A.U. after   15 cycles
 SCF Done:  E(RM062X) =  -1930.11352085     A.U. after    7 cycles
 SCF Done:  E(RM062X) =  -1930.11339745     A.U. after   12 cycles
 SCF Done:  E(RM062X) =  -1930.11462105     A.U. after   12 cycles
 SCF Done:  E(RM062X) =  -1930.11461982     A.U. after   11 cycles
 SCF Done:  E(RM062X) =  -1930.11462183     A.U. after   11 cycles
 SCF Done:  E(RM062X) =  -1930.11462019     A.U. after   11 cycles
 SCF Done:  E(RM062X) =  -1930.11462033     A.U. after   11 cycles
 SCF Done:  E(RM062X) =  -1930.11462115     A.U. after    9 cycles
 SCF Done:  E(RM062X) =  -1930.11462122     A.U. after    9 cycles
 SCF Done:  E(RM062X) =  -1930.11462110     A.U. after    8 cycles
 Optimization completed.
    -- Stationary point found.
 Normal termination of Gaussian 09 at Tue Oct 30 14:02:29 2018.
 Gaussian 09:  ES64L-G09RevE.01 30-Nov-2015

 ----------------------------------------------------------------------
 # M062X/Gen 6D SCF=Tight INT(grid=ultrafine) OPT IOP(2/17=4) SCRF=(SMD
 ,Solvent=h2o) Freq=Noraman maxdisk=2684354560 geom=check guess=read IO
 P(2/17=4)
 ----------------------------------------------------------------------

 -----------------------------------
 3SF55Chloro.M062X_6-31pGd_opt_water
 -----------------------------------
 Structure from the checkpoint file:  "3SF55Chloro.M062X_6-31pGd_opt_water.chk"
 Charge =  0 Multiplicity = 1

 SCF Done:  E(RM062X) =  -1930.11462110     A.U. after    1 cycles
 Optimization completed.
    -- Stationary point found.
 Normal termination of Gaussian 09 at Tue Oct 30 14:03:55 2018.

 ----------------------------------------------------------------------
 #N Geom=AllCheck Guess=TCheck SCRF=Check Test GenChk RM062X/ChkBas Fre
 q
 ----------------------------------------------------------------------

 Structure from the checkpoint file:  "3SF55Chloro.M062X_6-31pGd_opt_water.chk"
 -----------------------------------
 3SF55Chloro.M062X_6-31pGd_opt_water
 -----------------------------------
 Charge =  0 Multiplicity = 1

                         Standard orientation:
 ---------------------------------------------------------------------
 Center     Atomic      Atomic             Coordinates (Angstroms)
 Number     Number       Type             X           Y           Z
 ---------------------------------------------------------------------
      1          6           0       -7.565027   -1.008176    0.222928
      2          6           0       -6.467654   -0.017666   -0.152757
      3          6           0       -5.089904   -0.593650    0.135934
      4          7           0       -4.052137    0.371063   -0.211214
      5          6           0       -2.747331    0.069842   -0.045380
      6          8           0       -2.361245   -1.059475    0.288085
      7          7           0       -1.876780    1.116969   -0.292274
      8          6           0       -0.489458    1.105380   -0.158672
      9          6           0        0.274570   -0.069245   -0.148103
     10          6           0        0.153293    2.348689   -0.068677
     11          6           0        1.533389    2.404340    0.035439
     12          6           0        2.326166    1.261177    0.064934
     13          6           0        1.651655    0.052454   -0.029635
     14          1           0       -8.555492   -0.594806    0.011150
     15          1           0       -7.522614   -1.253298    1.289858
     16          1           0       -7.460505   -1.941023   -0.342028
     17          1           0       -6.595618    0.914448    0.411664
     18          1           0       -6.537710    0.235609   -1.217421
     19          1           0       -4.933989   -1.507297   -0.447291
     20          1           0       -5.007055   -0.861035    1.196950
     21          1           0       -4.328139    1.333581   -0.376425
     22          1           0       -2.290559    2.033421   -0.436051
     23          1           0       -0.203062   -1.034032   -0.237126
     24          1           0       -0.433358    3.262716   -0.079360
     25          1           0        3.404152    1.327796    0.154836
     26         16           0        2.633343   -1.472817   -0.008187
     27          9           0        1.625497   -2.207401    1.016766
     28          9           0        3.531135   -0.973321    1.238153
     29          9           0        1.825750   -2.109512   -1.253036
     30         17           0        2.307591    3.962725    0.144091
     31          9           0        3.509760   -2.830396    0.011010
     32          9           0        3.731814   -0.876773   -1.031077
 ---------------------------------------------------------------------

 SCF Done:  E(RM062X) =  -1930.11462110     A.U. after    1 cycles

 The electronic state is 1-A.
 Alpha  occ. eigenvalues -- -102.68526 -90.33509 -25.31413 -25.31405 -25.31404
 Alpha  occ. eigenvalues --  -25.31403 -25.31270 -19.62757 -14.81026 -14.78998
 Alpha  occ. eigenvalues --  -10.69836 -10.63860 -10.63201 -10.62301 -10.58823
 Alpha  occ. eigenvalues --  -10.58293 -10.58199 -10.57769 -10.54218 -10.52977
 Alpha  occ. eigenvalues --   -9.83190  -8.62167  -7.55595  -7.54931  -7.54911
 Alpha  occ. eigenvalues --   -6.54596  -6.54586  -6.54144  -1.50192  -1.40410
 Alpha  occ. eigenvalues --   -1.40359  -1.37318  -1.35956  -1.18827  -1.07214
 Alpha  occ. eigenvalues --   -1.03886  -1.01456  -0.97408  -0.93020  -0.88612
 Alpha  occ. eigenvalues --   -0.86531  -0.85300  -0.78514  -0.76282  -0.74251
 Alpha  occ. eigenvalues --   -0.73929  -0.72753  -0.68632  -0.68592  -0.67335
 Alpha  occ. eigenvalues --   -0.64365  -0.64002  -0.62579  -0.61772  -0.60952
 Alpha  occ. eigenvalues --   -0.59250  -0.58682  -0.56348  -0.55731  -0.55659
 Alpha  occ. eigenvalues --   -0.55622  -0.55521  -0.55420  -0.53828  -0.53000
 Alpha  occ. eigenvalues --   -0.52857  -0.52412  -0.51733  -0.51420  -0.51120
 Alpha  occ. eigenvalues --   -0.49500  -0.49062  -0.46779  -0.46727  -0.45867
 Alpha  occ. eigenvalues --   -0.44405  -0.42730  -0.42032  -0.39981  -0.39520
 Alpha  occ. eigenvalues --   -0.39256  -0.38859  -0.36461  -0.33226  -0.32498
 Alpha  occ. eigenvalues --   -0.28781
 Alpha virt. eigenvalues --   -0.02138  -0.01834  -0.00083   0.01104   0.02361
 Alpha virt. eigenvalues --    0.03164   0.03637   0.03942   0.04233   0.04382
 Alpha virt. eigenvalues --    0.04855   0.05030   0.05373   0.05962   0.06752

 Mulliken charges:
               1
     1  C   -0.740015
     2  C   -0.387369
     3  C   -0.158347
     4  N   -0.652543
     5  C    0.640093
     6  O   -0.742730
     7  N   -0.654139
     8  C    0.425467
     9  C    0.093075
    10  C   -1.118207
    11  C    0.726615
    12  C   -0.881355
    13  C   -0.032406
    14  H    0.223790
    15  H    0.222840
    16  H    0.222196
    17  H    0.233186
    18  H    0.235706
    19  H    0.240281
    20  H    0.236142
    21  H    0.479917
    22  H    0.499694
    23  H    0.302910
    24  H    0.288363
    25  H    0.303850
    26  S    2.300891
    27  F   -0.500089
    28  F   -0.498344
    29  F   -0.498449
    30  Cl   0.194783
    31  F   -0.507427
    32  F   -0.498379
 Sum of Mulliken charges =  -0.00000

 Dipole moment (field-independent basis, Debye):
    X=             -8.6348    Y=              8.1296    Z=             -1.3309  Tot=             11.9340
 Quadrupole moment (field-independent basis, Debye-Ang):
   XX=           -104.7515   YY=           -131.6723   ZZ=           -134.1758
   XY=            -10.8675   XZ=              3.3650   YZ=             -0.3194

  Exact polarizability: 291.751  14.905 261.801   6.776  -2.153 159.607
 Approx polarizability: 237.711   9.655 226.432   6.635  -1.740 145.662

                      1                      2                      3
                      A                      A                      A
 Frequencies --     19.2958                26.7196                43.1101
 Red. masses --      3.4599                 3.3543                 9.7023
 Frc consts  --      0.0008                 0.0014                 0.0106
 IR Inten    --      2.2875                 4.9117                 0.8458

                      4                      5                      6
                      A                      A                      A
 Frequencies --     48.2087                55.7399                66.3471
 Red. masses --      5.8508                 2.7401                 5.1149
 Frc consts  --      0.0080                 0.0050                 0.0133
 IR Inten    --      0.3759                41.5565                 0.1993

                      7                      8                      9
                      A                      A                      A
 Frequencies --     98.9800               111.7120               146.6832
 Red. masses --      7.9994                 7.8904                 5.5071
 Frc consts  --      0.0462                 0.0580                 0.0698
 IR Inten    --      0.2589                 0.1350                13.6698

                     10                     11                     12
                      A                      A                      A
 Frequencies --    157.7532               189.0092               196.3297
 Red. masses --      3.4691                 7.8631                 7.8092
 Frc consts  --      0.0509                 0.1655                 0.1773
 IR Inten    --      9.8517                 0.4615                 0.9514

                     13                     14                     15
                      A                      A                      A
 Frequencies --    233.0584               237.3526               247.6417
 Red. masses --      2.0679                 1.6672                 4.8778
 Frc consts  --      0.0662                 0.0553                 0.1762
 IR Inten    --      3.7507                 2.2584                 3.3256

                     16                     17                     18
                      A                      A                      A
 Frequencies --    271.1229               280.4497               316.6744
 Red. masses --      8.3114                 7.0479                 6.4404
 Frc consts  --      0.3600                 0.3266                 0.3805
 IR Inten    --      2.4197                 0.8629                12.9282

                     19                     20                     21
                      A                      A                      A
 Frequencies --    324.3382               340.1076               351.1211
 Red. masses --      1.3577                18.7305                 3.0748
 Frc consts  --      0.0841                 1.2765                 0.2233
 IR Inten    --     86.2547                 0.0254                20.5882

                     22                     23                     24
                      A                      A                      A
 Frequencies --    392.2024               393.2859               449.5530
 Red. masses --     14.0240                12.4614                 7.0423
 Frc consts  --      1.2710                 1.1356                 0.8385
 IR Inten    --      5.7855                 6.3971                 1.8265

                     25                     26                     27
                      A                      A                      A
 Frequencies --    455.3658               458.1377               497.4413
 Red. masses --      8.3516                 6.8293                 5.9911
 Frc consts  --      1.0203                 0.8445                 0.8735
 IR Inten    --      3.6007                 6.8888                 7.2902

                     28                     29                     30
                      A                      A                      A
 Frequencies --    514.7851               538.2817               557.4869
 Red. masses --      1.2071                13.3547                14.1674
 Frc consts  --      0.1885                 2.2798                 2.5942
 IR Inten    --    275.4649                39.8775                19.9096

                     31                     32                     33
                      A                      A                      A
 Frequencies --    564.6052               585.4912               610.7097
 Red. masses --      5.6887                17.9036                17.3199
 Frc consts  --      1.0685                 3.6160                 3.8060
 IR Inten    --      0.6327               167.6650                 0.1818

                     34                     35                     36
                      A                      A                      A
 Frequencies --    612.0319               648.9907               663.1120
 Red. masses --      5.8760                 8.0748                10.9338
 Frc consts  --      1.2968                 2.0038                 2.8327
 IR Inten    --      4.9854                49.0198                48.4776

                     37                     38                     39
                      A                      A                      A
 Frequencies --    681.3263               749.7791               757.2859
 Red. masses --      2.4938                10.9965                 1.5855
 Frc consts  --      0.6821                 3.6423                 0.5357
 IR Inten    --     43.3488               225.1368                20.9550

                     40                     41                     42
                      A                      A                      A
 Frequencies --    768.4671               805.3633               856.0165
 Red. masses --      2.3976                 7.2355                20.4886
 Frc consts  --      0.8342                 2.7650                 8.8456
 IR Inten    --      5.9874                92.3168               689.3829

                     43                     44                     45
                      A                      A                      A
 Frequencies --    861.8226               871.4040               876.9432
 Red. masses --     16.7627                12.9267                 1.5122
 Frc consts  --      7.3355                 5.7833                 0.6852
 IR Inten    --    632.8114               263.0383                22.4980

                     46                     47                     48
                      A                      A                      A
 Frequencies --    900.6949               906.5990               921.0425
 Red. masses --      1.5269                 1.1560                 1.3810
 Frc consts  --      0.7298                 0.5598                 0.6903
 IR Inten    --     32.9712                 5.4281                14.0809

                     49                     50                     51
                      A                      A                      A
 Frequencies --    929.2990               970.1054              1012.9860
 Red. masses --      1.7716                 5.4795                 5.8885
 Frc consts  --      0.9014                 3.0383                 3.5601
 IR Inten    --     37.6327                77.0016                18.7964

                     52                     53                     54
                      A                      A                      A
 Frequencies --   1054.2539              1087.8706              1150.5587
 Red. masses --      4.1549                 2.5751                 1.5476
 Frc consts  --      2.7208                 1.7956                 1.2071
 IR Inten    --     27.5071                26.5897                25.4931

                     55                     56                     57
                      A                      A                      A
 Frequencies --   1159.4229              1172.5797              1177.0371
 Red. masses --      2.7737                 2.3406                 1.8963
 Frc consts  --      2.1968                 1.8961                 1.5479
 IR Inten    --     48.7881                40.4919                11.4674

                     58                     59                     60
                      A                      A                      A
 Frequencies --   1182.3995              1267.6097              1282.4564
 Red. masses --      1.8737                 1.6842                 1.2273
 Frc consts  --      1.5434                 1.5944                 1.1893
 IR Inten    --      4.9276               366.4956                32.6396

                     61                     62                     63
                      A                      A                      A
 Frequencies --   1304.2465              1321.1639              1329.2387
 Red. masses --      1.5817                 2.1272                 1.0806
 Frc consts  --      1.5852                 2.1876                 1.1249
 IR Inten    --    143.4527                30.8802                 7.4318

                     64                     65                     66
                      A                      A                      A
 Frequencies --   1350.1901              1370.0618              1421.0166
 Red. masses --      1.4536                 3.9970                 1.2817
 Frc consts  --      1.5613                 4.4204                 1.5248
 IR Inten    --     45.7381               164.7195                 2.6343

                     67                     68                     69
                      A                      A                      A
 Frequencies --   1429.8164              1463.8689              1491.0496
 Red. masses --      1.6112                 2.8278                 1.0581
 Frc consts  --      1.9407                 3.5703                 1.3860
 IR Inten    --      4.1559               143.1125                 9.9390

                     70                     71                     72
                      A                      A                      A
 Frequencies --   1501.7474              1511.7977              1517.5949
 Red. masses --      1.0394                 1.0914                 3.4342
 Frc consts  --      1.3811                 1.4696                 4.6600
 IR Inten    --     11.8911                29.3996               546.2632

                     73                     74                     75
                      A                      A                      A
 Frequencies --   1530.0225              1574.6778              1585.4899
 Red. masses --      1.0928                 1.9924                 2.4055
 Frc consts  --      1.5072                 2.9108                 3.5628
 IR Inten    --     35.8082               757.4876               718.3265

                     76                     77                     78
                      A                      A                      A
 Frequencies --   1664.1261              1679.4222              1711.7045
 Red. masses --      5.8216                 5.7053                 4.0487
 Frc consts  --      9.4988                 9.4808                 6.9891
 IR Inten    --    301.5592                78.3788               741.1237

                     79                     80                     81
                      A                      A                      A
 Frequencies --   3074.3102              3077.5510              3080.2181
 Red. masses --      1.0606                 1.0383                 1.0599
 Frc consts  --      5.9062                 5.7940                 5.9250
 IR Inten    --      5.5137                17.9549               113.7566

                     82                     83                     84
                      A                      A                      A
 Frequencies --   3110.3795              3130.7422              3148.3250
 Red. masses --      1.1009                 1.1053                 1.1041
 Frc consts  --      6.2752                 6.3831                 6.4477
 IR Inten    --      5.3240                43.0941                98.4909

                     85                     86                     87
                      A                      A                      A
 Frequencies --   3157.1975              3251.7848              3269.0621
 Red. masses --      1.1023                 1.0934                 1.0945
 Frc consts  --      6.4739                 6.8117                 6.8916
 IR Inten    --     47.3012                 3.0544                24.1165

                     88                     89                     90
                      A                      A                      A
 Frequencies --   3308.7472              3608.3235              3614.4611
 Red. masses --      1.0925                 1.0783                 1.0792
 Frc consts  --      7.0467                 8.2721                 8.3070
 IR Inten    --     41.7172                59.9072               241.4683

 - Thermochemistry -
 -------------------
 Temperature   298.150 Kelvin.  Pressure   1.00000 Atm.
 Atom     1 has atomic number  6 and mass  12.00000

 Molecular mass:   338.02790 amu.
 Principal axes and moments of inertia in atomic units:
                           1         2         3
     Eigenvalues --  4792.69253********************
           X            0.99987   0.01608  -0.00080
           Y           -0.01609   0.99987  -0.00272
           Z            0.00075   0.00274   1.00000
 This molecule is an asymmetric top.
 Rotational symmetry number  1.
 Warning -- assumption of classical behavior for rotation
           may cause significant error
 Rotational temperatures (Kelvin)      0.01807     0.00638     0.00492
 Rotational constants (GHZ):           0.37656     0.13290     0.10262
 Zero-point vibrational energy     602289.2 (Joules/Mol)
                                  143.95058 (Kcal/Mol)
 Warning -- explicit consideration of  34 degrees of freedom as
           vibrations may cause significant error
 Vibrational temperatures:     27.76    38.44    62.03    69.36    80.20
          (Kelvin)             95.46   142.41   160.73   211.04   226.97
                              271.94   282.47   335.32   341.50   356.30
                              390.08   403.50   455.62   466.65   489.34
                              505.18   564.29   565.85   646.81   655.17
                              659.16   715.71   740.66   774.47   802.10
                              812.34   842.39   878.67   880.58   933.75
                              954.07   980.28  1078.76  1089.56  1105.65
                             1158.74  1231.62  1239.97  1253.75  1261.72
                             1295.90  1304.39  1325.17  1337.05  1395.76
                             1457.46  1516.83  1565.20  1655.40  1668.15
                             1687.08  1693.49  1701.21  1823.81  1845.17
                             1876.52  1900.86  1912.48  1942.62  1971.21
                             2044.52  2057.18  2106.18  2145.29  2160.68
                             2175.14  2183.48  2201.36  2265.61  2281.16
                             2394.30  2416.31  2462.76  4423.24  4427.90
                             4431.74  4475.14  4504.43  4529.73  4542.50
                             4678.59  4703.45  4760.54  5191.57  5200.40

 Zero-point correction=                           0.229400 (Hartree/Particle)
 Thermal correction to Energy=                    0.249566
 Thermal correction to Enthalpy=                  0.250510
 Thermal correction to Gibbs Free Energy=         0.177856
 Sum of electronic and zero-point Energies=          -1929.885221
 Sum of electronic and thermal Energies=             -1929.865055
 Sum of electronic and thermal Enthalpies=           -1929.864111
 Sum of electronic and thermal Free Energies=        -1929.936765

                     E (Thermal)             CV                S
                      KCal/Mol        Cal/Mol-Kelvin    Cal/Mol-Kelvin
 Total                  156.605             74.401            152.913
 Electronic               0.000              0.000              0.000
 Translational            0.889              2.981             43.349
 Rotational               0.889              2.981             35.391
 Vibrational            154.828             68.439             74.173
 Vibration     1          0.593              1.986              6.705
 Vibration     2          0.593              1.984              6.059
 Vibration     3          0.595              1.980              5.111
 Vibration     4          0.595              1.978              4.890
 Vibration     5          0.596              1.975              4.603
 Vibration     6          0.598              1.970              4.259
 Vibration     7          0.604              1.950              3.474
 Vibration     8          0.607              1.940              3.239
 Vibration     9          0.617              1.906              2.715
 Vibration    10          0.621              1.894              2.577
 Vibration    11          0.633              1.855              2.238
 Vibration    12          0.636              1.845              2.167
 Vibration    13          0.654              1.790              1.855
 Vibration    14          0.656              1.783              1.823
 Vibration    15          0.661              1.767              1.747
 Vibration    16          0.675              1.726              1.589
 Vibration    17          0.680              1.710              1.531
 Vibration    18          0.704              1.642              1.327
 Vibration    19          0.709              1.627              1.288
 Vibration    20          0.720              1.595              1.212
 Vibration    21          0.728              1.573              1.161
 Vibration    22          0.760              1.487              0.992
 Vibration    23          0.760              1.485              0.988
 Vibration    24          0.808              1.362              0.797
 Vibration    25          0.814              1.349              0.780
 Vibration    26          0.816              1.343              0.772
 Vibration    27          0.853              1.256              0.665
 Vibration    28          0.870              1.217              0.622
 Vibration    29          0.893              1.165              0.569
 Vibration    30          0.913              1.123              0.529
 Vibration    31          0.920              1.108              0.515
 Vibration    32          0.943              1.063              0.475
 Vibration    33          0.970              1.009              0.432
 Vibration    34          0.971              1.006              0.429

 Normal termination of Gaussian 09 at Tue Oct 30 15:04:00 2018.
