 Gaussian 09, Revision E.01,

 ----------------------------------------------------------------------
 # M062X/Gen 6D SCF=Tight INT(grid=ultrafine) OPT IOP(2/17=4) SCRF=(SMD
 ,Solvent=h2o) maxdisk=2684354560
 ----------------------------------------------------------------------

 --------------------------------------
 3SF55Chloro_a1.M062X_6-31pGd_opt_water
 --------------------------------------
 Symbolic Z-matrix:
 Charge = -1 Multiplicity = 1

 SCF Done:  E(RM062X) =  -1929.58354445     A.U. after   19 cycles
 SCF Done:  E(RM062X) =  -1929.62091544     A.U. after   14 cycles
 SCF Done:  E(RM062X) =  -1929.63079138     A.U. after   14 cycles
 SCF Done:  E(RM062X) =  -1929.63326102     A.U. after   13 cycles
 SCF Done:  E(RM062X) =  -1929.63426712     A.U. after   17 cycles
 SCF Done:  E(RM062X) =  -1929.63538107     A.U. after   17 cycles
 SCF Done:  E(RM062X) =  -1929.63601492     A.U. after   14 cycles
 SCF Done:  E(RM062X) =  -1929.63663531     A.U. after   15 cycles
 SCF Done:  E(RM062X) =  -1929.63728308     A.U. after   14 cycles
 SCF Done:  E(RM062X) =  -1929.63751247     A.U. after   12 cycles
 SCF Done:  E(RM062X) =  -1929.63850431     A.U. after   13 cycles
 SCF Done:  E(RM062X) =  -1929.63850769     A.U. after   12 cycles
 SCF Done:  E(RM062X) =  -1929.63850928     A.U. after   12 cycles
 SCF Done:  E(RM062X) =  -1929.63851010     A.U. after   11 cycles
 SCF Done:  E(RM062X) =  -1929.63851059     A.U. after   10 cycles
 SCF Done:  E(RM062X) =  -1929.63851090     A.U. after    9 cycles
 SCF Done:  E(RM062X) =  -1929.63851110     A.U. after   10 cycles
 SCF Done:  E(RM062X) =  -1929.63851117     A.U. after   10 cycles
 Optimization completed.
    -- Stationary point found.
 Normal termination of Gaussian 09 at Tue Oct 30 14:50:04 2018.
 Gaussian 09:  ES64L-G09RevE.01 30-Nov-2015

 ----------------------------------------------------------------------
 # M062X/Gen 6D SCF=Tight INT(grid=ultrafine) OPT IOP(2/17=4) SCRF=(SMD
 ,Solvent=h2o) Freq=Noraman maxdisk=2684354560 geom=check guess=read IO
 P(2/17=4)
 ----------------------------------------------------------------------

 --------------------------------------
 3SF55Chloro_a1.M062X_6-31pGd_opt_water
 --------------------------------------
 Structure from the checkpoint file:  "3SF55Chloro_a1.M062X_6-31pGd_opt_water.chk"
 Charge = -1 Multiplicity = 1

 SCF Done:  E(RM062X) =  -1929.63851117     A.U. after    2 cycles
 Optimization completed.
    -- Stationary point found.
 Normal termination of Gaussian 09 at Tue Oct 30 14:52:13 2018.

 ----------------------------------------------------------------------
 #N Geom=AllCheck Guess=TCheck SCRF=Check Test GenChk RM062X/ChkBas Fre
 q
 ----------------------------------------------------------------------

 Structure from the checkpoint file:  "3SF55Chloro_a1.M062X_6-31pGd_opt_water.chk"
 --------------------------------------
 3SF55Chloro_a1.M062X_6-31pGd_opt_water
 --------------------------------------
 Charge = -1 Multiplicity = 1

                         Standard orientation:
 ---------------------------------------------------------------------
 Center     Atomic      Atomic             Coordinates (Angstroms)
 Number     Number       Type             X           Y           Z
 ---------------------------------------------------------------------
      1          6           0       -7.520138   -0.912721   -0.284751
      2          6           0       -6.396772   -0.133242    0.392108
      3          6           0       -5.040202   -0.482911   -0.202281
      4          7           0       -3.982646    0.285773    0.441705
      5          6           0       -2.678247    0.181710   -0.012198
      6          8           0       -2.359062   -0.842000   -0.681856
      7          7           0       -1.899686    1.228617    0.318617
      8          6           0       -0.541420    1.158073    0.153281
      9          6           0        0.233177   -0.031705    0.139333
     10          6           0        0.169300    2.379849    0.067091
     11          6           0        1.548707    2.400365   -0.039157
     12          6           0        2.324448    1.244513   -0.064830
     13          6           0        1.610507    0.054961    0.033159
     14          1           0       -8.492743   -0.662292    0.149678
     15          1           0       -7.369449   -1.992380   -0.172877
     16          1           0       -7.562386   -0.688716   -1.356536
     17          1           0       -6.385967   -0.347710    1.467753
     18          1           0       -6.572710    0.944821    0.281536
     19          1           0       -5.054091   -0.297988   -1.287273
     20          1           0       -4.840390   -1.549883   -0.061416
     21          1           0       -4.243916    1.225374    0.721352
     22          1           0       -0.259222   -0.990142    0.227375
     23          1           0       -0.389240    3.310440    0.085596
     24          1           0        3.403230    1.284213   -0.152732
     25         16           0        2.556910   -1.493999    0.028587
     26          9           0        1.725300   -2.115379    1.268858
     27          9           0        3.664195   -0.925074    1.062993
     28          9           0        1.547456   -2.218634   -1.006176
     29         17           0        2.364465    3.946842   -0.150824
     30          9           0        3.405084   -2.874479    0.024681
     31          9           0        3.486083   -1.027115   -1.211888
 ---------------------------------------------------------------------

 SCF Done:  E(RM062X) =  -1929.63851117     A.U. after    1 cycles

 The electronic state is 1-A.
 Alpha  occ. eigenvalues -- -102.67651 -90.32757 -25.30863 -25.30858 -25.30850
 Alpha  occ. eigenvalues --  -25.30845 -25.30754 -19.59715 -14.75788 -14.71576
 Alpha  occ. eigenvalues --  -10.65126 -10.62421 -10.61057 -10.59819 -10.57199
 Alpha  occ. eigenvalues --  -10.56425 -10.56249 -10.55824 -10.53628 -10.52706
 Alpha  occ. eigenvalues --   -9.82315  -8.61456  -7.54711  -7.54063  -7.54047
 Alpha  occ. eigenvalues --   -6.53876  -6.53865  -6.53409  -1.49488  -1.39771
 Alpha  occ. eigenvalues --   -1.39725  -1.36697  -1.35378  -1.14148  -1.01741
 Alpha  occ. eigenvalues --   -1.00806  -0.98007  -0.96196  -0.91184  -0.87147
 Alpha  occ. eigenvalues --   -0.84464  -0.83178  -0.76404  -0.74697  -0.73454
 Alpha  occ. eigenvalues --   -0.73334  -0.70162  -0.66988  -0.66235  -0.63713
 Alpha  occ. eigenvalues --   -0.62922  -0.62008  -0.61616  -0.59122  -0.58135
 Alpha  occ. eigenvalues --   -0.57203  -0.55520  -0.55186  -0.55031  -0.54900
 Alpha  occ. eigenvalues --   -0.54836  -0.53868  -0.52746  -0.52236  -0.51857
 Alpha  occ. eigenvalues --   -0.51235  -0.50857  -0.49879  -0.48688  -0.48143
 Alpha  occ. eigenvalues --   -0.47602  -0.45873  -0.45219  -0.44139  -0.42769
 Alpha  occ. eigenvalues --   -0.41598  -0.41024  -0.39131  -0.38696  -0.38408
 Alpha  occ. eigenvalues --   -0.36847  -0.34785  -0.31418  -0.30653  -0.30336
 Alpha  occ. eigenvalues --   -0.24423
 Alpha virt. eigenvalues --   -0.01788  -0.00366   0.01302   0.01633   0.02965
 Alpha virt. eigenvalues --    0.03652   0.03935   0.04134   0.04467   0.04676
 Alpha virt. eigenvalues --    0.04962   0.05538   0.05752   0.06413   0.06909

 Mulliken charges:
               1
     1  C   -0.745077
     2  C   -0.360893
     3  C   -0.343316
     4  N   -0.607295
     5  C    0.677101
     6  O   -0.830740
     7  N   -0.628925
     8  C    0.479460
     9  C   -0.152496
    10  C   -0.952482
    11  C    0.868424
    12  C   -1.071391
    13  C   -0.029501
    14  H    0.220353
    15  H    0.219411
    16  H    0.220133
    17  H    0.228297
    18  H    0.223138
    19  H    0.210160
    20  H    0.224158
    21  H    0.435140
    22  H    0.273549
    23  H    0.261255
    24  H    0.289474
    25  S    2.261175
    26  F   -0.500503
    27  F   -0.503429
    28  F   -0.502714
    29  Cl   0.153606
    30  F   -0.512972
    31  F   -0.503100
 Sum of Mulliken charges =  -1.00000

 Dipole moment (field-independent basis, Debye):
    X=              0.4499    Y=              1.6933    Z=              1.0730  Tot=              2.0545
 Quadrupole moment (field-independent basis, Debye-Ang):
   XX=           -142.4462   YY=           -149.9774   ZZ=           -139.7754
   XY=             -0.1665   XZ=             -2.5103   YZ=             -3.1518

  Exact polarizability: 334.906  26.336 273.820  -9.175   5.914 175.881
 Approx polarizability: 263.593  16.917 232.174  -8.793   4.434 157.658

                      1                      2                      3
                      A                      A                      A
 Frequencies --     17.0855                27.8435                40.8937
 Red. masses --      3.3718                 4.5225                 6.4597
 Frc consts  --      0.0006                 0.0021                 0.0064
 IR Inten    --      8.9046                 1.3107                 1.5329

                      4                      5                      6
                      A                      A                      A
 Frequencies --     48.2224                63.8723                81.3143
 Red. masses --      7.8680                 2.5667                 5.2841
 Frc consts  --      0.0108                 0.0062                 0.0206
 IR Inten    --      3.4413                12.2049                 0.5095

                      7                      8                      9
                      A                      A                      A
 Frequencies --     97.5449               123.1010               149.6089
 Red. masses --      7.8247                 7.5558                 6.1718
 Frc consts  --      0.0439                 0.0675                 0.0814
 IR Inten    --      2.7911                 3.3416                 8.1899

                     10                     11                     12
                      A                      A                      A
 Frequencies --    166.6110               189.7993               201.3769
 Red. masses --      3.2225                10.1254                 5.8854
 Frc consts  --      0.0527                 0.2149                 0.1406
 IR Inten    --     11.3617                 4.0820                 0.9521

                     13                     14                     15
                      A                      A                      A
 Frequencies --    237.0695               247.8458               255.3320
 Red. masses --      1.2193                 4.1927                 5.4622
 Frc consts  --      0.0404                 0.1517                 0.2098
 IR Inten    --      0.7411                 4.6793                 2.7615

                     16                     17                     18
                      A                      A                      A
 Frequencies --    272.7106               279.1448               324.1373
 Red. masses --     10.3486                 7.4388                 6.5478
 Frc consts  --      0.4535                 0.3415                 0.4053
 IR Inten    --      3.1303                 3.4306                10.0404

                     19                     20                     21
                      A                      A                      A
 Frequencies --    340.1411               341.8490               391.1341
 Red. masses --     18.5651                 4.7179                14.1830
 Frc consts  --      1.2655                 0.3248                 1.2784
 IR Inten    --      0.1902                34.9774                 5.4432

                     22                     23                     24
                      A                      A                      A
 Frequencies --    392.2186               442.6422               450.5554
 Red. masses --     12.9418                 3.4101                 9.2315
 Frc consts  --      1.1730                 0.3937                 1.1041
 IR Inten    --      3.8489                39.9408                 5.7613

                     25                     26                     27
                      A                      A                      A
 Frequencies --    453.6931               501.9444               533.0751
 Red. masses --     14.5254                 4.8981                 1.6044
 Frc consts  --      1.7616                 0.7271                 0.2686
 IR Inten    --      3.5973                14.7392               218.9781

                     28                     29                     30
                      A                      A                      A
 Frequencies --    537.9575               557.6991               567.5632
 Red. masses --     12.5630                13.4685                 5.9408
 Frc consts  --      2.1421                 2.4681                 1.1275
 IR Inten    --     37.6142                26.5115                 5.6259

                     31                     32                     33
                      A                      A                      A
 Frequencies --    582.8627               605.1693               621.9157
 Red. masses --     17.3932                18.8047                 5.2994
 Frc consts  --      3.4815                 4.0576                 1.2076
 IR Inten    --    173.9412                 0.0018                11.1189

                     34                     35                     36
                      A                      A                      A
 Frequencies --    645.3420               658.8242               680.8686
 Red. masses --      9.5705                 6.7855                 2.4025
 Frc consts  --      2.3483                 1.7353                 0.6562
 IR Inten    --     77.3089                58.4577                54.7511

                     37                     38                     39
                      A                      A                      A
 Frequencies --    742.9046               758.2275               775.6287
 Red. masses --     10.3594                 1.1728                 5.3743
 Frc consts  --      3.3686                 0.3973                 1.9049
 IR Inten    --    229.1000                18.3291               180.1028

                     40                     41                     42
                      A                      A                      A
 Frequencies --    805.2529               834.2973               846.5281
 Red. masses --      6.2037                 1.4708                18.3018
 Frc consts  --      2.3701                 0.6032                 7.7273
 IR Inten    --     94.8003               104.4695               610.9390

                     43                     44                     45
                      A                      A                      A
 Frequencies --    852.8157               862.1584               885.6978
 Red. masses --     18.3791                15.7137                 1.7011
 Frc consts  --      7.8756                 6.8818                 0.7862
 IR Inten    --    720.8777               260.6314                52.1437

                     46                     47                     48
                      A                      A                      A
 Frequencies --    905.3932               906.2539               927.3101
 Red. masses --      1.1904                 1.3415                 1.9014
 Frc consts  --      0.5750                 0.6492                 0.9633
 IR Inten    --     15.6994                18.3162                20.4678

                     49                     50                     51
                      A                      A                      A
 Frequencies --    959.7620               998.3689              1037.1178
 Red. masses --      4.9919                 5.4879                 4.8379
 Frc consts  --      2.7092                 3.2229                 3.0660
 IR Inten    --     61.1870               119.4679                28.5671

                     52                     53                     54
                      A                      A                      A
 Frequencies --   1081.9744              1137.2367              1145.0366
 Red. masses --      2.4869                 1.8405                 1.5315
 Frc consts  --      1.7153                 1.4024                 1.1831
 IR Inten    --     15.3847                86.9539                46.4689

                     55                     56                     57
                      A                      A                      A
 Frequencies --   1148.5439              1167.5229              1187.3063
 Red. masses --      1.9825                 1.8012                 3.2262
 Frc consts  --      1.5408                 1.4466                 2.6795
 IR Inten    --     47.6671                 9.1716                73.9292

                     58                     59                     60
                      A                      A                      A
 Frequencies --   1262.0712              1281.3343              1285.5593
 Red. masses --      1.5527                 1.4980                 1.4334
 Frc consts  --      1.4572                 1.4491                 1.3957
 IR Inten    --    135.8226               229.1784               215.7843

                     61                     62                     63
                      A                      A                      A
 Frequencies --   1322.4590              1331.0565              1340.0648
 Red. masses --      1.1173                 2.1855                 2.0816
 Frc consts  --      1.1513                 2.2813                 2.2024
 IR Inten    --     17.1245               119.9392                 9.3791

                     64                     65                     66
                      A                      A                      A
 Frequencies --   1383.0757              1420.5887              1434.7994
 Red. masses --      2.8582                 1.3081                 1.9739
 Frc consts  --      3.2213                 1.5553                 2.3942
 IR Inten    --    987.0134                72.9700               374.8931

                     67                     68                     69
                      A                      A                      A
 Frequencies --   1471.7871              1484.6767              1491.0120
 Red. masses --      3.8341                 2.0112                 1.1502
 Frc consts  --      4.8933                 2.6119                 1.5065
 IR Inten    --    292.1456              1493.5808               248.9822

                     70                     71                     72
                      A                      A                      A
 Frequencies --   1502.5006              1503.7546              1513.7551
 Red. masses --      1.0485                 2.8644                 1.1906
 Frc consts  --      1.3946                 3.8163                 1.6074
 IR Inten    --     21.2018               272.4525                66.6882

                     73                     74                     75
                      A                      A                      A
 Frequencies --   1532.1590              1563.3410              1612.1600
 Red. masses --      1.1247                 4.5884                 6.4785
 Frc consts  --      1.5556                 6.6072                 9.9207
 IR Inten    --     76.2079               997.7683               230.3516

                     76                     77                     78
                      A                      A                      A
 Frequencies --   1666.5235              3037.5384              3068.4403
 Red. masses --      7.8403                 1.0705                 1.0609
 Frc consts  --     12.8294                 5.8197                 5.8854
 IR Inten    --    201.7436                96.9422                53.3146

                     79                     80                     81
                      A                      A                      A
 Frequencies --   3075.1900              3103.6092              3124.1810
 Red. masses --      1.0364                 1.0982                 1.0969
 Frc consts  --      5.7746                 6.2325                 6.3078
 IR Inten    --     44.1376                16.6460                62.0531

                     82                     83                     84
                      A                      A                      A
 Frequencies --   3143.8377              3153.5042              3246.3684
 Red. masses --      1.1036                 1.1021                 1.0925
 Frc consts  --      6.4263                 6.4576                 6.7835
 IR Inten    --     99.2226                52.6815                 0.9640

                     85                     86                     87
                      A                      A                      A
 Frequencies --   3274.6153              3293.8734              3599.5202
 Red. masses --      1.0940                 1.0914                 1.0770
 Frc consts  --      6.9117                 6.9767                 8.2217
 IR Inten    --     25.3404                13.9858                65.6754

 - Thermochemistry -
 -------------------
 Temperature   298.150 Kelvin.  Pressure   1.00000 Atm.
 Atom     1 has atomic number  6 and mass  12.00000

 Molecular mass:   337.02008 amu.
 Principal axes and moments of inertia in atomic units:
                           1         2         3
     Eigenvalues --  4826.64299********************
           X            0.99984   0.01774   0.00065
           Y           -0.01774   0.99984   0.00271
           Z           -0.00060  -0.00272   1.00000
 This molecule is an asymmetric top.
 Rotational symmetry number  1.
 Warning -- assumption of classical behavior for rotation
           may cause significant error
 Rotational temperatures (Kelvin)      0.01794     0.00651     0.00502
 Rotational constants (GHZ):           0.37391     0.13570     0.10459
 Zero-point vibrational energy     565939.3 (Joules/Mol)
                                  135.26274 (Kcal/Mol)
 Warning -- explicit consideration of  32 degrees of freedom as
           vibrations may cause significant error
 Vibrational temperatures:     24.58    40.06    58.84    69.38    91.90
          (Kelvin)            116.99   140.35   177.11   215.25   239.72
                              273.08   289.74   341.09   356.59   367.37
                              392.37   401.63   466.36   489.39   491.84
                              562.75   564.31   636.86   648.25   652.76
                              722.19   766.98   774.00   802.40   816.60
                              838.61   870.70   894.80   928.50   947.90
                              979.62  1068.87  1090.92  1115.96  1158.58
                             1200.37  1217.96  1227.01  1240.45  1274.32
                             1302.66  1303.90  1334.19  1380.88  1436.43
                             1492.18  1556.72  1636.23  1647.45  1652.50
                             1679.80  1708.27  1815.84  1843.55  1849.63
                             1902.72  1915.09  1928.05  1989.93  2043.91
                             2064.35  2117.57  2136.12  2145.23  2161.76
                             2163.56  2177.95  2204.43  2249.30  2319.54
                             2397.75  4370.33  4414.80  4424.51  4465.40
                             4494.99  4523.28  4537.18  4670.79  4711.44
                             4739.14  5178.90

 Zero-point correction=                           0.215555 (Hartree/Particle)
 Thermal correction to Energy=                    0.235250
 Thermal correction to Enthalpy=                  0.236194
 Thermal correction to Gibbs Free Energy=         0.164559
 Sum of electronic and zero-point Energies=          -1929.422956
 Sum of electronic and thermal Energies=             -1929.403261
 Sum of electronic and thermal Enthalpies=           -1929.402317
 Sum of electronic and thermal Free Energies=        -1929.473953

                     E (Thermal)             CV                S
                      KCal/Mol        Cal/Mol-Kelvin    Cal/Mol-Kelvin
 Total                  147.621             72.947            150.769
 Electronic               0.000              0.000              0.000
 Translational            0.889              2.981             43.340
 Rotational               0.889              2.981             35.359
 Vibrational            145.844             66.986             72.071
 Vibration     1          0.593              1.986              6.947
 Vibration     2          0.593              1.984              5.977
 Vibration     3          0.594              1.981              5.215
 Vibration     4          0.595              1.978              4.889
 Vibration     5          0.597              1.972              4.334
 Vibration     6          0.600              1.962              3.859
 Vibration     7          0.603              1.951              3.503
 Vibration     8          0.610              1.930              3.051
 Vibration     9          0.618              1.903              2.677
 Vibration    10          0.624              1.884              2.473
 Vibration    11          0.633              1.854              2.230
 Vibration    12          0.638              1.838              2.120
 Vibration    13          0.656              1.784              1.825
 Vibration    14          0.661              1.766              1.746
 Vibration    15          0.666              1.754              1.693
 Vibration    16          0.676              1.724              1.579
 Vibration    17          0.679              1.712              1.539
 Vibration    18          0.709              1.627              1.289
 Vibration    19          0.720              1.595              1.211
 Vibration    20          0.721              1.592              1.204
 Vibration    21          0.759              1.489              0.996
 Vibration    22          0.760              1.487              0.992
 Vibration    23          0.802              1.377              0.818
 Vibration    24          0.809              1.360              0.794
 Vibration    25          0.812              1.353              0.785
 Vibration    26          0.857              1.246              0.653
 Vibration    27          0.888              1.177              0.580
 Vibration    28          0.893              1.166              0.570
 Vibration    29          0.913              1.123              0.528
 Vibration    30          0.924              1.101              0.509
 Vibration    31          0.940              1.068              0.480
 Vibration    32          0.964              1.021              0.441

 Optimization completed.
    -- Stationary point found.
 Normal termination of Gaussian 09 at Tue Oct 30 15:59:31 2018.
