 Gaussian 09, Revision E.01,

 ----------------------------------------------------------------------
 # M062X/Gen 6D SCF=Tight INT(grid=ultrafine) OPT IOP(2/17=4) SCRF=(SMD
 ,Solvent=n-Pentadecane) maxdisk=2147483648
 ----------------------------------------------------------------------

 -----------------------------------------
 3Chloro4TFM.M062X_6-31pGd_opt_Pentadecane
 -----------------------------------------
 Symbolic Z-matrix:
 Charge =  0 Multiplicity = 1

 SCF Done:  E(RM062X) =  -1370.53203831     A.U. after   15 cycles
 SCF Done:  E(RM062X) =  -1370.54454160     A.U. after   14 cycles
 SCF Done:  E(RM062X) =  -1370.54588379     A.U. after   14 cycles
 SCF Done:  E(RM062X) =  -1370.54629406     A.U. after   12 cycles
 SCF Done:  E(RM062X) =  -1370.54633665     A.U. after   11 cycles
 SCF Done:  E(RM062X) =  -1370.54643807     A.U. after   12 cycles
 SCF Done:  E(RM062X) =  -1370.49239378     A.U. after   16 cycles
 SCF Done:  E(RM062X) =  -1370.54645971     A.U. after    9 cycles
 SCF Done:  E(RM062X) =  -1370.49133644     A.U. after   16 cycles
 SCF Done:  E(RM062X) =  -1370.54647542     A.U. after   10 cycles
 SCF Done:  E(RM062X) =  -1370.55106025     A.U. after   13 cycles
 SCF Done:  E(RM062X) =  -1370.55129555     A.U. after   13 cycles
 SCF Done:  E(RM062X) =  -1370.55129962     A.U. after   11 cycles
 SCF Done:  E(RM062X) =  -1370.55130064     A.U. after   10 cycles
 SCF Done:  E(RM062X) =  -1370.55130105     A.U. after   10 cycles
 SCF Done:  E(RM062X) =  -1370.55130116     A.U. after   10 cycles
 SCF Done:  E(RM062X) =  -1370.55130118     A.U. after    9 cycles
 SCF Done:  E(RM062X) =  -1370.55130117     A.U. after    8 cycles
 SCF Done:  E(RM062X) =  -1370.55130116     A.U. after    8 cycles
 Optimization completed.
    -- Stationary point found.
 Normal termination of Gaussian 09 at Fri Feb 22 14:12:07 2019.
 Gaussian 09:  ES64L-G09RevE.01 30-Nov-2015

 ----------------------------------------------------------------------
 # M062X/Gen 6D SCF=Tight INT(grid=ultrafine) SCRF=(SMD,Solvent=n-Penta
 decane) Freq=Noraman maxdisk=2147483648 geom=check guess=read IOP(2/17
 =4)
 ----------------------------------------------------------------------

 -----------------------------------------
 3Chloro4TFM.M062X_6-31pGd_opt_Pentadecane
 -----------------------------------------
 Structure from the checkpoint file:  "3Chloro4TFM.M062X_6-31pGd_opt_Pentadecane.chk"
 Charge =  0 Multiplicity = 1

                         Standard orientation:
 ---------------------------------------------------------------------
 Center     Atomic      Atomic             Coordinates (Angstroms)
 Number     Number       Type             X           Y           Z
 ---------------------------------------------------------------------
      1          6           0        7.513888    0.417509    0.049996
      2          6           0        6.275831   -0.471834    0.119096
      3          6           0        5.002684    0.323841   -0.138691
      4          7           0        3.836253   -0.546591   -0.069275
      5          6           0        2.582555   -0.009786    0.003073
      6          8           0        2.376675    1.188385    0.126097
      7          7           0        1.568640   -0.961343   -0.046349
      8          6           0        0.191909   -0.745826   -0.020081
      9          6           0       -0.391900    0.528898   -0.026196
     10          6           0       -0.637141   -1.878083    0.000179
     11          6           0       -2.014610   -1.741169    0.011989
     12          6           0       -2.610369   -0.479379    0.004230
     13          6           0       -1.776180    0.641148   -0.015323
     14          1           0        8.424177   -0.159136    0.238766
     15          1           0        7.463649    1.218334    0.795742
     16          1           0        7.611115    0.883899   -0.936537
     17          1           0        6.205347   -0.947495    1.104703
     18          1           0        6.361107   -1.277988   -0.622506
     19          1           0        5.054578    0.822856   -1.116567
     20          1           0        4.879331    1.104235    0.617170
     21          1           0        3.945222   -1.486588   -0.430822
     22          1           0        1.851425   -1.934141   -0.026790
     23          1           0        0.224378    1.416635   -0.035209
     24          1           0       -0.196334   -2.871272    0.006236
     25          1           0       -2.640909   -2.626440    0.027956
     26         17           0       -2.446995    2.248962   -0.026854
     27          6           0       -4.107472   -0.356287    0.017674
     28          9           0       -4.582769    0.286703   -1.064785
     29          9           0       -4.561473    0.310958    1.094453
     30          9           0       -4.700980   -1.564435    0.036921
 ---------------------------------------------------------------------

 SCF Done:  E(RM062X) =  -1370.55130116     A.U. after    1 cycles

 The electronic state is 1-A.
 Alpha  occ. eigenvalues -- -102.67841 -25.30342 -25.29753 -25.29747 -19.62341
 Alpha  occ. eigenvalues --  -14.81738 -14.79579 -10.81474 -10.69775 -10.63729
 Alpha  occ. eigenvalues --  -10.62986 -10.59004 -10.58555 -10.58405 -10.57464
 Alpha  occ. eigenvalues --  -10.57031 -10.55506 -10.54141  -9.82495  -7.54907
 Alpha  occ. eigenvalues --   -7.54234  -7.54206  -1.46681  -1.37452  -1.37049
 Alpha  occ. eigenvalues --   -1.19038  -1.07541  -1.04172  -1.01078  -0.94900
 Alpha  occ. eigenvalues --   -0.90150  -0.88303  -0.85121  -0.81567  -0.78332
 Alpha  occ. eigenvalues --   -0.74004  -0.72356  -0.69402  -0.69344  -0.68918
 Alpha  occ. eigenvalues --   -0.68024  -0.66552  -0.64203  -0.61713  -0.57261
 Alpha  occ. eigenvalues --   -0.57182  -0.56602  -0.55621  -0.54791  -0.54246
 Alpha  occ. eigenvalues --   -0.53320  -0.52929  -0.52648  -0.51580  -0.50928
 Alpha  occ. eigenvalues --   -0.50833  -0.50004  -0.48927  -0.47574  -0.46221
 Alpha  occ. eigenvalues --   -0.45548  -0.43724  -0.43177  -0.42602  -0.41116
 Alpha  occ. eigenvalues --   -0.40409  -0.38415  -0.38354  -0.35789  -0.33230
 Alpha  occ. eigenvalues --   -0.31606  -0.28890
 Alpha virt. eigenvalues --   -0.00722  -0.00169   0.00062   0.02216   0.02605
 Alpha virt. eigenvalues --    0.03112   0.03758   0.03874   0.04412   0.05353
 Alpha virt. eigenvalues --    0.05530   0.05929   0.06428   0.06872   0.07320

 Mulliken charges:
               1
     1  C   -0.743010
     2  C   -0.329030
     3  C   -0.177287
     4  N   -0.608238
     5  C    0.865857
     6  O   -0.598695
     7  N   -0.661060
     8  C   -0.084019
     9  C    0.437096
    10  C   -1.053060
    11  C   -0.440161
    12  C   -1.650470
    13  C    0.901252
    14  H    0.218620
    15  H    0.220131
    16  H    0.218305
    17  H    0.229728
    18  H    0.211479
    19  H    0.223234
    20  H    0.246271
    21  H    0.414157
    22  H    0.442823
    23  H    0.296991
    24  H    0.223919
    25  H    0.258290
    26  Cl   0.258247
    27  C    1.552747
    28  F   -0.266488
    29  F   -0.264362
    30  F   -0.343263
 Sum of Mulliken charges =  -0.00000

 Dipole moment (field-independent basis, Debye):
    X=              7.3199    Y=             -5.9457    Z=             -0.7925  Tot=              9.4636
 Quadrupole moment (field-independent basis, Debye-Ang):
   XX=           -106.9273   YY=           -104.9687   ZZ=           -115.0961
   XY=             -7.6063   XZ=             -2.8555   YZ=              0.7573

  Exact polarizability: 249.606  -6.139 186.673  -1.418  -0.160 111.685
 Approx polarizability: 222.272  -8.575 214.497  -1.357   0.663 130.813

                      1                      2                      3
                      A                      A                      A
 Frequencies --     20.8797                30.7513                52.1435
 Red. masses --      5.6466                 3.0025                 7.3501
 Frc consts  --      0.0015                 0.0017                 0.0118
 IR Inten    --      0.7134                 5.3507                 2.2048

                      4                      5                      6
                      A                      A                      A
 Frequencies --     57.2487                58.7501                68.4366
 Red. masses --      4.2862                 4.9894                 2.8894
 Frc consts  --      0.0083                 0.0101                 0.0080
 IR Inten    --      1.7688                 4.6718                 2.2027

                      7                      8                      9
                      A                      A                      A
 Frequencies --    107.8508               133.6902               158.8635
 Red. masses --      5.4127                 5.8694                15.6743
 Frc consts  --      0.0371                 0.0618                 0.2331
 IR Inten    --      0.1975                 7.7639                 1.7159

                     10                     11                     12
                      A                      A                      A
 Frequencies --    181.9160               191.3179               207.4702
 Red. masses --      5.1623                 3.4653                 6.2148
 Frc consts  --      0.1007                 0.0747                 0.1576
 IR Inten    --      0.2572                 1.7439                 2.7212

                     13                     14                     15
                      A                      A                      A
 Frequencies --    233.3284               241.8931               254.3391
 Red. masses --      1.1903                 5.5528                 5.3713
 Frc consts  --      0.0382                 0.1914                 0.2047
 IR Inten    --      0.0483                 0.0699                 7.7594

                     16                     17                     18
                      A                      A                      A
 Frequencies --    319.5033               330.1159               348.2905
 Red. masses --     12.6590                 1.8435                 2.3502
 Frc consts  --      0.7614                 0.1184                 0.1680
 IR Inten    --      1.7729                92.1189                24.0495

                     19                     20                     21
                      A                      A                      A
 Frequencies --    386.4061               418.5161               426.2365
 Red. masses --      5.8934                 6.1647                 5.4235
 Frc consts  --      0.5184                 0.6362                 0.5805
 IR Inten    --     12.3741                 3.2286                 1.4666

                     22                     23                     24
                      A                      A                      A
 Frequencies --    459.7285               470.4171               515.6280
 Red. masses --      4.0897                 9.3948                 4.5421
 Frc consts  --      0.5093                 1.2249                 0.7115
 IR Inten    --      3.3542                 7.7670                28.0550

                     25                     26                     27
                      A                      A                      A
 Frequencies --    541.2957               564.2161               596.2805
 Red. masses --      1.1798                12.9489                10.4571
 Frc consts  --      0.2037                 2.4287                 2.1906
 IR Inten    --    140.8539                 3.3286                 1.0138

                     28                     29                     30
                      A                      A                      A
 Frequencies --    629.3585               651.4803               721.8641
 Red. masses --      3.3661                 6.8130                 7.5346
 Frc consts  --      0.7856                 1.7037                 2.3132
 IR Inten    --     15.1881                11.9313                15.4915

                     31                     32                     33
                      A                      A                      A
 Frequencies --    745.1235               754.8190               767.0091
 Red. masses --      5.0160                 1.6706                 2.4309
 Frc consts  --      1.6408                 0.5608                 0.8426
 IR Inten    --      0.8566                11.1941                 4.3049

                     34                     35                     36
                      A                      A                      A
 Frequencies --    772.0406               799.5585               848.2468
 Red. masses --      6.7040                 7.0048                 1.4856
 Frc consts  --      2.3543                 2.6384                 0.6298
 IR Inten    --     12.8824                 3.5107                55.4256

                     37                     38                     39
                      A                      A                      A
 Frequencies --    900.3093               923.3298               927.5243
 Red. masses --      1.1850                 1.4008                 1.8964
 Frc consts  --      0.5659                 0.7036                 0.9613
 IR Inten    --      2.4730                24.4115                 1.8498

                     40                     41                     42
                      A                      A                      A
 Frequencies --    954.0164               989.1045              1043.1020
 Red. masses --      4.1340                 1.3292                 5.4490
 Frc consts  --      2.2168                 0.7662                 3.4932
 IR Inten    --     29.5682                 2.9338                34.4738

                     43                     44                     45
                      A                      A                      A
 Frequencies --   1047.3848              1082.3267              1143.6888
 Red. masses --      4.2575                 2.5654                 2.6112
 Frc consts  --      2.7518                 1.7706                 2.0123
 IR Inten    --      6.5810                 6.7074               243.4555

                     46                     47                     48
                      A                      A                      A
 Frequencies --   1149.0116              1164.8562              1181.9340
 Red. masses --      2.6377                 2.4363                 1.7834
 Frc consts  --      2.0518                 1.9477                 1.4679
 IR Inten    --     12.7545                14.1490                11.6605

                     49                     50                     51
                      A                      A                      A
 Frequencies --   1183.6592              1200.7358              1218.1055
 Red. masses --      2.1901                12.8813                 2.4811
 Frc consts  --      1.8079                10.9422                 2.1691
 IR Inten    --     91.5440               318.8025               175.8917

                     52                     53                     54
                      A                      A                      A
 Frequencies --   1252.8798              1281.1713              1287.1163
 Red. masses --      1.6184                 1.2814                 1.6884
 Frc consts  --      1.4968                 1.2393                 1.6481
 IR Inten    --    327.0852               137.7904                14.6328

                     55                     56                     57
                      A                      A                      A
 Frequencies --   1312.3551              1326.2583              1349.6262
 Red. masses --      2.5259                 1.1576                 1.3447
 Frc consts  --      2.5632                 1.1997                 1.4432
 IR Inten    --      3.5516                36.1465                15.5125

                     58                     59                     60
                      A                      A                      A
 Frequencies --   1358.1728              1373.2925              1425.1113
 Red. masses --      3.2498                 7.5363                 1.5078
 Frc consts  --      3.5320                 8.3740                 1.8043
 IR Inten    --    252.8831               610.6702                 4.0494

                     61                     62                     63
                      A                      A                      A
 Frequencies --   1436.3037              1454.8900              1508.5435
 Red. masses --      1.3432                 3.7898                 1.0596
 Frc consts  --      1.6326                 4.7263                 1.4208
 IR Inten    --      1.7423               105.1061                 9.1161

                     64                     65                     66
                      A                      A                      A
 Frequencies --   1518.7044              1521.9489              1534.6664
 Red. masses --      1.0398                 1.0758                 1.0970
 Frc consts  --      1.4130                 1.4681                 1.5223
 IR Inten    --     13.2203                 4.1639                 8.4623

                     67                     68                     69
                      A                      A                      A
 Frequencies --   1551.5474              1569.8891              1591.1937
 Red. masses --      1.8124                 3.1216                 2.4762
 Frc consts  --      2.5706                 4.5328                 3.6939
 IR Inten    --    457.9080                37.8630               835.1628

                     70                     71                     72
                      A                      A                      A
 Frequencies --   1665.2750              1694.6549              1807.6824
 Red. masses --      4.2331                 6.0995                 7.7849
 Frc consts  --      6.9164                10.3207                14.9881
 IR Inten    --    263.5192               121.8138               385.1139

                     73                     74                     75
                      A                      A                      A
 Frequencies --   3060.1657              3064.7685              3079.6471
 Red. masses --      1.0686                 1.0650                 1.0366
 Frc consts  --      5.8960                 5.8941                 5.7924
 IR Inten    --     25.6273                45.9422                34.2523

                     76                     77                     78
                      A                      A                      A
 Frequencies --   3107.6122              3145.3193              3151.8038
 Red. masses --      1.0983                 1.0981                 1.1012
 Frc consts  --      6.2491                 6.4007                 6.4452
 IR Inten    --     18.3720                 1.7882                60.8142

                     79                     80                     81
                      A                      A                      A
 Frequencies --   3158.5955              3220.5013              3257.7439
 Red. masses --      1.1020                 1.0911                 1.0935
 Frc consts  --      6.4778                 6.6676                 6.8378
 IR Inten    --     33.0345                 7.1118                 0.4456

                     82                     83                     84
                      A                      A                      A
 Frequencies --   3302.9810              3620.3057              3629.8197
 Red. masses --      1.0926                 1.0782                 1.0776
 Frc consts  --      7.0233                 8.3258                 8.3655
 IR Inten    --     25.7285                 9.5348                98.3571

 - Thermochemistry -
 -------------------
 Temperature   298.150 Kelvin.  Pressure   1.00000 Atm.
 Atom     1 has atomic number  6 and mass  12.00000

 Molecular mass:   280.05903 amu.
 Principal axes and moments of inertia in atomic units:
                           1         2         3
     Eigenvalues --  1608.74368********************
           X            1.00000   0.00207  -0.00015
           Y           -0.00207   1.00000   0.00073
           Z            0.00016  -0.00073   1.00000
 This molecule is an asymmetric top.
 Rotational symmetry number  1.
 Warning -- assumption of classical behavior for rotation
           may cause significant error
 Rotational temperatures (Kelvin)      0.05384     0.00600     0.00553
 Rotational constants (GHZ):           1.12183     0.12511     0.11513
 Zero-point vibrational energy     596904.6 (Joules/Mol)
                                  142.66361 (Kcal/Mol)
 Warning -- explicit consideration of  27 degrees of freedom as
           vibrations may cause significant error
 Vibrational temperatures:     30.04    44.24    75.02    82.37    84.53
          (Kelvin)             98.46   155.17   192.35   228.57   261.74
                              275.26   298.50   335.71   348.03   365.94
                              459.69   474.96   501.11   555.95   602.15
                              613.26   661.45   676.82   741.87   778.80
                              811.78   857.91   905.51   937.33  1038.60
                             1072.07  1086.01  1103.55  1110.79  1150.38
                             1220.44  1295.34  1328.46  1334.50  1372.62
                             1423.10  1500.79  1506.95  1557.22  1645.51
                             1653.17  1675.97  1700.54  1703.02  1727.59
                             1752.58  1802.61  1843.32  1851.87  1888.18
                             1908.19  1941.81  1954.11  1975.86  2050.41
                             2066.52  2093.26  2170.45  2185.07  2189.74
                             2208.04  2232.33  2258.72  2289.37  2395.96
                             2438.23  2600.85  4402.89  4409.51  4430.92
                             4471.16  4525.41  4534.74  4544.51  4633.58
                             4687.16  4752.25  5208.81  5222.49

 Zero-point correction=                           0.227349 (Hartree/Particle)
 Thermal correction to Energy=                    0.245217
 Thermal correction to Enthalpy=                  0.246161
 Thermal correction to Gibbs Free Energy=         0.178639
 Sum of electronic and zero-point Energies=          -1370.323952
 Sum of electronic and thermal Energies=             -1370.306084
 Sum of electronic and thermal Enthalpies=           -1370.305140
 Sum of electronic and thermal Free Energies=        -1370.372662

                     E (Thermal)             CV                S
                      KCal/Mol        Cal/Mol-Kelvin    Cal/Mol-Kelvin
 Total                  153.876             64.300            142.113
 Electronic               0.000              0.000              0.000
 Translational            0.889              2.981             42.788
 Rotational               0.889              2.981             34.252
 Vibrational            152.098             58.338             65.072
 Vibration     1          0.593              1.986              6.549
 Vibration     2          0.594              1.984              5.780
 Vibration     3          0.596              1.977              4.734
 Vibration     4          0.596              1.975              4.550
 Vibration     5          0.596              1.974              4.499
 Vibration     6          0.598              1.969              4.198
 Vibration     7          0.606              1.943              3.307
 Vibration     8          0.613              1.920              2.892
 Vibration     9          0.621              1.893              2.563
 Vibration    10          0.630              1.864              2.309
 Vibration    11          0.634              1.852              2.215
 Vibration    12          0.641              1.829              2.066
 Vibration    13          0.654              1.790              1.853
 Vibration    14          0.658              1.776              1.789
 Vibration    15          0.665              1.755              1.700
 Vibration    16          0.705              1.636              1.313
 Vibration    17          0.713              1.615              1.260
 Vibration    18          0.726              1.579              1.174
 Vibration    19          0.755              1.499              1.014
 Vibration    20          0.781              1.430              0.897
 Vibration    21          0.788              1.413              0.871
 Vibration    22          0.818              1.339              0.767
 Vibration    23          0.827              1.316              0.736
 Vibration    24          0.871              1.215              0.620
 Vibration    25          0.896              1.159              0.563
 Vibration    26          0.920              1.109              0.515
 Vibration    27          0.954              1.040              0.456

 Normal termination of Gaussian 09 at Fri Feb 22 14:54:16 2019.
