 Gaussian 09, Revision E.01,

 ----------------------------------------------------------------------
 # M062X/Gen 6D SCF=Tight INT(grid=ultrafine) OPT IOP(2/17=4) SCRF=(SMD
 ,Solvent=h2o) maxdisk=2684354560
 ----------------------------------------------------------------------

 ---------------------------------------
 3Chloro4TFM_EtO.M062X_6-31pGd_opt_water
 ---------------------------------------
 Symbolic Z-matrix:
 Charge = -1 Multiplicity = 1

 SCF Done:  E(RM062X) =  -1638.36452622     A.U. after   15 cycles
 SCF Done:  E(RM062X) =  -1638.39796768     A.U. after   13 cycles
 SCF Done:  E(RM062X) =  -1638.40422412     A.U. after   14 cycles
 SCF Done:  E(RM062X) =  -1638.40689888     A.U. after   14 cycles
 SCF Done:  E(RM062X) =  -1638.40735347     A.U. after   15 cycles
 SCF Done:  E(RM062X) =  -1638.40796426     A.U. after   15 cycles
 SCF Done:  E(RM062X) =  -1638.40833154     A.U. after   12 cycles
 SCF Done:  E(RM062X) =  -1638.40842572     A.U. after   11 cycles
 SCF Done:  E(RM062X) =  -1638.40845952     A.U. after   11 cycles
 SCF Done:  E(RM062X) =  -1638.40847299     A.U. after   10 cycles
 SCF Done:  E(RM062X) =  -1638.41330767     A.U. after   10 cycles
 SCF Done:  E(RM062X) =  -1638.41330823     A.U. after   10 cycles
 SCF Done:  E(RM062X) =  -1638.41330879     A.U. after   10 cycles
 SCF Done:  E(RM062X) =  -1638.41330898     A.U. after    9 cycles
 SCF Done:  E(RM062X) =  -1638.41330908     A.U. after    8 cycles
 SCF Done:  E(RM062X) =  -1638.41330914     A.U. after    9 cycles
 SCF Done:  E(RM062X) =  -1638.41330915     A.U. after    8 cycles
 SCF Done:  E(RM062X) =  -1638.41330917     A.U. after    8 cycles
 Optimization completed.
    -- Stationary point found.
 Normal termination of Gaussian 09 at Tue Feb 19 12:37:47 2019.
 Gaussian 09:  ES64L-G09RevE.01 30-Nov-2015

 ----------------------------------------------------------------------
 # M062X/Gen 6D SCF=Tight INT(grid=ultrafine) OPT IOP(2/17=4) SCRF=(SMD
 ,Solvent=h2o) Freq=Noraman maxdisk=2684354560 geom=check guess=read IO
 P(2/17=4)
 ----------------------------------------------------------------------

 ---------------------------------------
 3Chloro4TFM_EtO.M062X_6-31pGd_opt_water
 ---------------------------------------
 Structure from the checkpoint file:  "3Chloro4TFM_EtO.M062X_6-31pGd_opt_water.chk"
 Charge = -1 Multiplicity = 1

 SCF Done:  E(RM062X) =  -1638.41330917     A.U. after    1 cycles
 Optimization completed.
    -- Stationary point found.
 Normal termination of Gaussian 09 at Tue Feb 19 12:38:52 2019.

 ----------------------------------------------------------------------
 #N Geom=AllCheck Guess=TCheck SCRF=Check Test GenChk RM062X/ChkBas Fre
 q
 ----------------------------------------------------------------------

 Structure from the checkpoint file:  "3Chloro4TFM_EtO.M062X_6-31pGd_opt_water.chk"
 ---------------------------------------
 3Chloro4TFM_EtO.M062X_6-31pGd_opt_water
 ---------------------------------------
 Charge = -1 Multiplicity = 1

                         Standard orientation:
 ---------------------------------------------------------------------
 Center     Atomic      Atomic             Coordinates (Angstroms)
 Number     Number       Type             X           Y           Z
 ---------------------------------------------------------------------
      1          6           0       -5.977261   -3.250957    0.113505
      2          6           0       -5.048912   -2.043142    0.037075
      3          6           0       -3.590875   -2.461154    0.162792
      4          7           0       -2.725413   -1.292073    0.102295
      5          6           0       -1.387578   -1.418654    0.181695
      6          8           0       -0.823426   -2.515967    0.340532
      7          7           0       -0.703100   -0.219078    0.091271
      8          6           0        0.672022   -0.036929    0.088596
      9          6           0        1.596895   -1.067680   -0.146873
     10          6           0        1.149933    1.269136    0.295779
     11          6           0        2.508153    1.533888    0.281254
     12          6           0        3.438015    0.513998    0.063198
     13          6           0        2.953483   -0.777794   -0.152775
     14          1           0       -7.024663   -2.948360    0.021767
     15          1           0       -5.860017   -3.775260    1.068444
     16          1           0       -5.760467   -3.962974   -0.690601
     17          1           0       -5.290955   -1.330928    0.835673
     18          1           0       -5.193707   -1.518437   -0.915425
     19          1           0       -3.331570   -3.161181   -0.641890
     20          1           0       -3.431139   -2.984550    1.113030
     21          1           0       -3.140418   -0.387402   -0.154987
     22          1           0       -1.274271    0.639483    0.166498
     23          1           0        1.264789   -2.079194   -0.331539
     24          1           0        0.444477    2.075830    0.470011
     25          1           0        2.854320    2.548410    0.447128
     26         17           0        4.052401   -2.103078   -0.454261
     27          6           0        4.903988    0.820137    0.061063
     28          9           0        5.583356    0.127375    0.999969
     29          9           0        5.146427    2.120377    0.300127
     30          9           0        5.496472    0.533217   -1.117859
     31          8           0       -3.992500    1.202280   -0.658580
     32          8           0       -2.287724    2.131729    0.447522
     33          6           0       -3.452284    2.171772   -0.056818
     34          6           0       -4.215615    3.484473    0.087147
     35          6           0       -5.636760    3.469166   -0.456979
     36          1           0       -3.616862    4.255272   -0.413601
     37          1           0       -4.209042    3.744244    1.152246
     38          1           0       -5.648963    3.246788   -1.528399
     39          1           0       -6.112813    4.443576   -0.308739
     40          1           0       -6.246250    2.714478    0.049974
 ---------------------------------------------------------------------

 SCF Done:  E(RM062X) =  -1638.41330917     A.U. after    1 cycles

 The electronic state is 1-A.
 Alpha  occ. eigenvalues -- -102.68300 -25.30837 -25.30383 -25.30379 -19.61916
 Alpha  occ. eigenvalues --  -19.60623 -19.60348 -14.79063 -14.77325 -10.81893
 Alpha  occ. eigenvalues --  -10.68651 -10.65074 -10.63612 -10.62037 -10.58704
 Alpha  occ. eigenvalues --  -10.57668 -10.57227 -10.56701 -10.56237 -10.53862
 Alpha  occ. eigenvalues --  -10.53628 -10.52784 -10.52600  -9.82953  -7.55357
 Alpha  occ. eigenvalues --   -7.54697  -7.54672  -1.47183  -1.37978  -1.37555
 Alpha  occ. eigenvalues --   -1.17664  -1.16522  -1.06732  -1.05773  -1.02646
 Alpha  occ. eigenvalues --   -1.00703  -0.94576  -0.89504  -0.87199  -0.85739
 Alpha  occ. eigenvalues --   -0.84662  -0.81232  -0.77468  -0.73299  -0.72302
 Alpha  occ. eigenvalues --   -0.71805  -0.69474  -0.69211  -0.67957  -0.66966
 Alpha  occ. eigenvalues --   -0.66011  -0.62533  -0.60856  -0.58801  -0.57771
 Alpha  occ. eigenvalues --   -0.57723  -0.55607  -0.55234  -0.54324  -0.53924
 Alpha  occ. eigenvalues --   -0.53582  -0.53158  -0.52824  -0.52516  -0.51852
 Alpha  occ. eigenvalues --   -0.51560  -0.51259  -0.50652  -0.49921  -0.49395
 Alpha  occ. eigenvalues --   -0.48128  -0.46525  -0.46014  -0.45418  -0.45340
 Alpha  occ. eigenvalues --   -0.44205  -0.43003  -0.42098  -0.41676  -0.41405
 Alpha  occ. eigenvalues --   -0.39715  -0.39381  -0.38998  -0.38835  -0.37807
 Alpha  occ. eigenvalues --   -0.35657  -0.33817  -0.32857  -0.32419  -0.32291
 Alpha  occ. eigenvalues --   -0.31327  -0.27635
 Alpha virt. eigenvalues --   -0.00379   0.00454   0.01499   0.02549   0.03086
 Alpha virt. eigenvalues --    0.03586   0.03762   0.03964   0.04764   0.05065
 Alpha virt. eigenvalues --    0.05215   0.05542   0.06002   0.06289   0.06653

 Mulliken charges:
               1
     1  C   -0.845013
     2  C   -0.329176
     3  C   -0.200842
     4  N   -0.767401
     5  C    0.818434
     6  O   -0.740790
     7  N   -0.644331
     8  C   -0.070448
     9  C   -0.206560
    10  C   -0.285150
    11  C   -0.320144
    12  C   -1.560252
    13  C    0.698922
    14  H    0.223033
    15  H    0.221332
    16  H    0.221583
    17  H    0.237497
    18  H    0.236982
    19  H    0.237062
    20  H    0.238258
    21  H    0.518221
    22  H    0.525782
    23  H    0.286816
    24  H    0.269711
    25  H    0.278619
    26  Cl   0.231061
    27  C    1.513143
    28  F   -0.279961
    29  F   -0.343980
    30  F   -0.282055
    31  O   -0.766272
    32  O   -0.779334
    33  C    0.749770
    34  C   -0.485492
    35  C   -0.753040
    36  H    0.245959
    37  H    0.244329
    38  H    0.222677
    39  H    0.218381
    40  H    0.222668
 Sum of Mulliken charges =  -1.00000

 Dipole moment (field-independent basis, Debye):
    X=              1.9049    Y=              1.0949    Z=              0.1229  Tot=              2.2006
 Quadrupole moment (field-independent basis, Debye-Ang):
   XX=           -198.2253   YY=           -157.7808   ZZ=           -149.9816
   XY=             12.9539   XZ=             -4.3506   YZ=              2.6036

  Exact polarizability: 361.135   6.985 308.889   2.956  15.230 205.555
 Approx polarizability: 287.022   0.315 260.799   2.130  12.867 181.035

                      1                      2                      3
                      A                      A                      A
 Frequencies --     19.2171                24.2683                31.7954
 Red. masses --      6.6368                 6.0471                 2.3385
 Frc consts  --      0.0014                 0.0021                 0.0014
 IR Inten    --      0.6217                 0.8961                 3.6889

                      4                      5                      6
                      A                      A                      A
 Frequencies --     35.3967                47.2676                55.1335
 Red. masses --      4.0875                 6.2890                 5.2522
 Frc consts  --      0.0030                 0.0083                 0.0094
 IR Inten    --      0.2817                 2.2313                 1.2580

                      7                      8                      9
                      A                      A                      A
 Frequencies --     57.7946                61.2667                65.2856
 Red. masses --      2.8726                 5.0456                 5.2768
 Frc consts  --      0.0057                 0.0112                 0.0133
 IR Inten    --      5.3179                 6.7948                 1.4410

                     10                     11                     12
                      A                      A                      A
 Frequencies --     73.0624                87.4215                96.4687
 Red. masses --      6.2479                 5.3158                 4.4990
 Frc consts  --      0.0197                 0.0239                 0.0247
 IR Inten    --      5.2623                10.9602                16.2765

                     13                     14                     15
                      A                      A                      A
 Frequencies --    111.8557               127.1678               153.9721
 Red. masses --      4.7792                 8.3755                 6.7577
 Frc consts  --      0.0352                 0.0798                 0.0944
 IR Inten    --      4.3317                25.5462                 9.2836

                     16                     17                     18
                      A                      A                      A
 Frequencies --    162.2884               166.5926               189.6091
 Red. masses --      8.8729                 3.1467                 6.3254
 Frc consts  --      0.1377                 0.0515                 0.1340
 IR Inten    --      7.4127                16.2772                 1.7453

                     19                     20                     21
                      A                      A                      A
 Frequencies --    210.7015               241.2324               247.5174
 Red. masses --      6.9357                 7.2403                 1.0951
 Frc consts  --      0.1814                 0.2482                 0.0395
 IR Inten    --      1.7192                 1.4103                 1.6290

                     22                     23                     24
                      A                      A                      A
 Frequencies --    247.9476               266.2387               298.7139
 Red. masses --      1.1303                 6.2749                 3.9203
 Frc consts  --      0.0409                 0.2621                 0.2061
 IR Inten    --      0.2706                 7.3841                11.0953

                     25                     26                     27
                      A                      A                      A
 Frequencies --    319.9370               342.8369               384.1790
 Red. masses --     12.1071                 4.8075                 7.5094
 Frc consts  --      0.7302                 0.3329                 0.6530
 IR Inten    --      2.4157                15.4271                31.9275

                     28                     29                     30
                      A                      A                      A
 Frequencies --    417.7196               425.5982               455.1838
 Red. masses --      6.5563                 5.9097                 3.9128
 Frc consts  --      0.6740                 0.6307                 0.4777
 IR Inten    --      3.5862                 4.8047                 5.8218

                     31                     32                     33
                      A                      A                      A
 Frequencies --    469.9485               510.6992               520.1047
 Red. masses --      9.1434                 5.0887                 5.5563
 Frc consts  --      1.1898                 0.7820                 0.8856
 IR Inten    --     16.8021                37.8203                32.8282

                     34                     35                     36
                      A                      A                      A
 Frequencies --    562.4948               580.5157               595.2643
 Red. masses --     13.0016                 1.9314                10.7556
 Frc consts  --      2.4237                 0.3835                 2.2455
 IR Inten    --      3.6222                 5.2817                 1.3890

                     37                     38                     39
                      A                      A                      A
 Frequencies --    630.9519               639.0305               651.1053
 Red. masses --      3.4859                 1.9757                 4.2332
 Frc consts  --      0.8176                 0.4754                 1.0574
 IR Inten    --      7.0951               116.3047                81.7454

                     40                     41                     42
                      A                      A                      A
 Frequencies --    660.5103               715.0964               739.3713
 Red. masses --      2.2416                 6.8999                 4.4880
 Frc consts  --      0.5762                 2.0788                 1.4455
 IR Inten    --     69.6001                43.7207                 0.3733

                     43                     44                     45
                      A                      A                      A
 Frequencies --    754.9960               761.6248               770.4841
 Red. masses --      2.2282                 1.2612                 5.3421
 Frc consts  --      0.7483                 0.4310                 1.8685
 IR Inten    --     73.6823                 0.1199                16.8696

                     46                     47                     48
                      A                      A                      A
 Frequencies --    786.6931               810.2915               819.9402
 Red. masses --      3.5920                 1.7888                 1.4987
 Frc consts  --      1.3098                 0.6920                 0.5937
 IR Inten    --     32.8093               105.3518                67.8729

                     49                     50                     51
                      A                      A                      A
 Frequencies --    859.8546               888.2396               889.7946
 Red. masses --      1.4544                 3.6537                 1.5211
 Frc consts  --      0.6336                 1.6984                 0.7096
 IR Inten    --    106.1387                37.3654                41.2138

                     52                     53                     54
                      A                      A                      A
 Frequencies --    906.2082               926.0747               950.1728
 Red. masses --      1.1521                 1.9085                 3.9314
 Frc consts  --      0.5575                 0.9644                 2.0912
 IR Inten    --      2.0854                 4.3096                17.4621

                     55                     56                     57
                      A                      A                      A
 Frequencies --    999.4324              1027.7043              1036.3295
 Red. masses --      1.3287                 1.6446                 5.2244
 Frc consts  --      0.7820                 1.0234                 3.3059
 IR Inten    --      1.7055                12.8927                32.5050

                     58                     59                     60
                      A                      A                      A
 Frequencies --   1050.3136              1083.9512              1109.0147
 Red. masses --      4.3469                 2.5462                 1.7950
 Frc consts  --      2.8253                 1.7626                 1.3007
 IR Inten    --     31.4415                11.9580                 2.9934

                     61                     62                     63
                      A                      A                      A
 Frequencies --   1112.9676              1135.4191              1151.5697
 Red. masses --      2.3325                 2.7353                 2.5834
 Frc consts  --      1.7023                 2.0776                 2.0185
 IR Inten    --     16.2320               357.2636                56.2524

                     64                     65                     66
                      A                      A                      A
 Frequencies --   1154.1662              1172.2960              1179.5907
 Red. masses --     12.3854                 3.1818                 3.0189
 Frc consts  --      9.7207                 2.5763                 2.4749
 IR Inten    --    457.0806               109.9711                55.3121

                     67                     68                     69
                      A                      A                      A
 Frequencies --   1181.4934              1210.3821              1279.9228
 Red. masses --      1.9550                 1.5716                 1.1962
 Frc consts  --      1.6079                 1.3566                 1.1546
 IR Inten    --     20.5049               163.0264                 3.3487

                     70                     71                     72
                      A                      A                      A
 Frequencies --   1285.3320              1290.2323              1295.7203
 Red. masses --      1.5264                 1.1719                 2.1186
 Frc consts  --      1.4857                 1.1494                 2.0957
 IR Inten    --      9.3179                 1.0692               742.0070

                     73                     74                     75
                      A                      A                      A
 Frequencies --   1323.4207              1327.1944              1336.1433
 Red. masses --      2.0202                 1.1443                 1.7534
 Frc consts  --      2.0847                 1.1876                 1.8444
 IR Inten    --     26.4011                12.9204               113.6513

                     76                     77                     78
                      A                      A                      A
 Frequencies --   1353.6301              1361.4319              1375.8192
 Red. masses --      1.9769                 2.7999                 5.3140
 Frc consts  --      2.1342                 3.0576                 5.9265
 IR Inten    --    738.5673               118.0651               489.1999

                     79                     80                     81
                      A                      A                      A
 Frequencies --   1420.0526              1421.3329              1430.3151
 Red. masses --      1.2859                 1.3105                 1.6768
 Frc consts  --      1.5278                 1.5598                 2.0211
 IR Inten    --      4.3800                28.9897                20.3681

                     82                     83                     84
                      A                      A                      A
 Frequencies --   1452.1917              1456.6109              1471.9043
 Red. masses --      3.8764                 1.2995                 2.9501
 Frc consts  --      4.8165                 1.6245                 3.7656
 IR Inten    --    155.9805               157.6747               291.1278

                     85                     86                     87
                      A                      A                      A
 Frequencies --   1490.3279              1502.5538              1504.0679
 Red. masses --      1.0602                 1.0398                 1.0399
 Frc consts  --      1.3874                 1.3832                 1.3861
 IR Inten    --      7.2938                10.9124                11.4621

                     88                     89                     90
                      A                      A                      A
 Frequencies --   1508.7171              1512.7644              1531.0001
 Red. masses --      1.1207                 1.0816                 1.0933
 Frc consts  --      1.5030                 1.4584                 1.5098
 IR Inten    --     75.5709                 2.2577                41.9758

                     91                     92                     93
                      A                      A                      A
 Frequencies --   1557.1048              1564.2991              1585.9731
 Red. masses --      6.1603                 3.3227                 2.8054
 Frc consts  --      8.8001                 4.7905                 4.1575
 IR Inten    --    698.9501               442.0211               275.9559

                     94                     95                     96
                      A                      A                      A
 Frequencies --   1608.9060              1653.8512              1690.4981
 Red. masses --      1.9902                 7.1244                 4.7324
 Frc consts  --      3.0354                11.4814                 7.9683
 IR Inten    --   1606.2569               446.8231                81.1363

                     97                     98                     99
                      A                      A                      A
 Frequencies --   1711.2012              3067.6651              3075.1596
 Red. masses --      2.5770                 1.0596                 1.0556
 Frc consts  --      4.4460                 5.8750                 5.8813
 IR Inten    --    793.2452                28.7217                44.4007

                    100                    101                    102
                      A                      A                      A
 Frequencies --   3076.5364              3083.1467              3084.3369
 Red. masses --      1.0404                 1.0459                 1.0523
 Frc consts  --      5.8020                 5.8577                 5.8984
 IR Inten    --     96.6062                59.9883                 6.7764

                    103                    104                    105
                      A                      A                      A
 Frequencies --   3100.1827              3119.6532              3120.7621
 Red. masses --      1.1029                 1.1063                 1.1012
 Frc consts  --      6.2456                 6.3434                 6.3189
 IR Inten    --      8.2536                60.3890                 8.6925

                    106                    107                    108
                      A                      A                      A
 Frequencies --   3145.8411              3154.3086              3154.9018
 Red. masses --      1.1038                 1.1025                 1.1023
 Frc consts  --      6.4360                 6.4631                 6.4640
 IR Inten    --     93.7754                52.2716                47.8949

                    109                    110                    111
                      A                      A                      A
 Frequencies --   3158.2713              3226.1243              3249.2656
 Red. masses --      1.1035                 1.0888                 1.0895
 Frc consts  --      6.4851                 6.6768                 6.7774
 IR Inten    --     57.9499              1223.3914                 0.9081

                    112                    113                    114
                      A                      A                      A
 Frequencies --   3261.9611              3303.8461              3335.2093
 Red. masses --      1.0954                 1.0923                 1.0867
 Frc consts  --      6.8673                 7.0251                 7.1220
 IR Inten    --      0.8059                18.8487              1385.5429

 - Thermochemistry -
 -------------------
 Temperature   298.150 Kelvin.  Pressure   1.00000 Atm.
 Atom     1 has atomic number  6 and mass  12.00000

 Molecular mass:   353.08798 amu.
 Principal axes and moments of inertia in atomic units:
                           1         2         3
     Eigenvalues --  4981.35404********************
           X            1.00000   0.00176   0.00095
           Y           -0.00176   0.99999  -0.00333
           Z           -0.00096   0.00333   0.99999
 This molecule is an asymmetric top.
 Rotational symmetry number  1.
 Warning -- assumption of classical behavior for rotation
           may cause significant error
 Rotational temperatures (Kelvin)      0.01739     0.00446     0.00364
 Rotational constants (GHZ):           0.36230     0.09298     0.07575
 Zero-point vibrational energy     804174.4 (Joules/Mol)
                                  192.20229 (Kcal/Mol)
 Warning -- explicit consideration of  36 degrees of freedom as
           vibrations may cause significant error
 Vibrational temperatures:     27.65    34.92    45.75    50.93    68.01
          (Kelvin)             79.32    83.15    88.15    93.93   105.12
                              125.78   138.80   160.94   182.97   221.53
                              233.50   239.69   272.80   303.15   347.08
                              356.12   356.74   383.06   429.78   460.32
                              493.27   552.75   601.00   612.34   654.91
                              676.15   734.78   748.31   809.30   835.23
                              856.45   907.80   919.42   936.79   950.33
                             1028.86  1063.79  1086.27  1095.81  1108.55
                             1131.87  1165.83  1179.71  1237.14  1277.98
                             1280.21  1303.83  1332.41  1367.08  1437.96
                             1478.64  1491.05  1511.17  1559.56  1595.62
                             1601.31  1633.61  1656.85  1660.59  1686.67
                             1697.17  1699.90  1741.47  1841.52  1849.30
                             1856.35  1864.25  1904.10  1909.53  1922.41
                             1947.57  1958.79  1979.49  2043.14  2044.98
                             2057.90  2089.38  2095.74  2117.74  2144.25
                             2161.84  2164.02  2170.70  2176.53  2202.76
                             2240.32  2250.67  2281.86  2314.85  2379.52
                             2432.25  2462.03  4413.68  4424.46  4426.44
                             4435.95  4437.67  4460.47  4488.48  4490.08
                             4526.16  4538.34  4539.19  4544.04  4641.67
                             4674.96  4693.23  4753.49  4798.62

 Zero-point correction=                           0.306294 (Hartree/Particle)
 Thermal correction to Energy=                    0.331018
 Thermal correction to Enthalpy=                  0.331962
 Thermal correction to Gibbs Free Energy=         0.246746
 Sum of electronic and zero-point Energies=          -1638.107015
 Sum of electronic and thermal Energies=             -1638.082291
 Sum of electronic and thermal Enthalpies=           -1638.081347
 Sum of electronic and thermal Free Energies=        -1638.166563

                     E (Thermal)             CV                S
                      KCal/Mol        Cal/Mol-Kelvin    Cal/Mol-Kelvin
 Total                  207.717             86.362            179.351
 Electronic               0.000              0.000              0.000
 Translational            0.889              2.981             43.478
 Rotational               0.889              2.981             36.086
 Vibrational            205.939             80.400             99.786
 Vibration     1          0.593              1.986              6.713
 Vibration     2          0.593              1.985              6.250
 Vibration     3          0.594              1.983              5.714
 Vibration     4          0.594              1.982              5.501
 Vibration     5          0.595              1.979              4.929
 Vibration     6          0.596              1.976              4.624
 Vibration     7          0.596              1.974              4.531
 Vibration     8          0.597              1.973              4.416
 Vibration     9          0.597              1.971              4.291
 Vibration    10          0.599              1.967              4.069
 Vibration    11          0.601              1.958              3.717
 Vibration    12          0.603              1.952              3.524
 Vibration    13          0.607              1.940              3.236
 Vibration    14          0.611              1.926              2.988
 Vibration    15          0.619              1.898              2.623
 Vibration    16          0.622              1.889              2.523
 Vibration    17          0.624              1.884              2.474
 Vibration    18          0.633              1.854              2.232
 Vibration    19          0.643              1.825              2.038
 Vibration    20          0.658              1.777              1.794
 Vibration    21          0.661              1.767              1.748
 Vibration    22          0.662              1.766              1.745
 Vibration    23          0.672              1.735              1.621
 Vibration    24          0.692              1.676              1.424
 Vibration    25          0.706              1.635              1.310
 Vibration    26          0.722              1.590              1.199
 Vibration    27          0.753              1.504              1.023
 Vibration    28          0.781              1.432              0.900
 Vibration    29          0.787              1.415              0.873
 Vibration    30          0.814              1.349              0.780
 Vibration    31          0.827              1.317              0.738
 Vibration    32          0.866              1.226              0.632
 Vibration    33          0.875              1.205              0.610
 Vibration    34          0.918              1.112              0.519
 Vibration    35          0.937              1.073              0.484
 Vibration    36          0.953              1.042              0.458

 Normal termination of Gaussian 09 at Tue Feb 19 13:28:47 2019.
