 Gaussian 09, Revision E.01,

 ----------------------------------------------------------------------
 # M062X/Gen 6D SCF=Tight INT(grid=ultrafine) OPT IOP(2/17=4) SCRF=(SMD
 ,Solvent=n-Pentadecane) maxdisk=2684354560
 ----------------------------------------------------------------------

 ---------------------------------------------
 3Chloro4TFM_EtO.M062X_6-31pGd_opt_Pentadecane
 ---------------------------------------------
 Symbolic Z-matrix:
 Charge = -1 Multiplicity = 1

 SCF Done:  E(RM062X) =  -1638.32570833     A.U. after   16 cycles
 SCF Done:  E(RM062X) =  -1638.36202001     A.U. after   13 cycles
 SCF Done:  E(RM062X) =  -1638.37217142     A.U. after   14 cycles
 SCF Done:  E(RM062X) =  -1638.37664163     A.U. after   14 cycles
 SCF Done:  E(RM062X) =  -1638.37704236     A.U. after   15 cycles
 SCF Done:  E(RM062X) =  -1638.37660532     A.U. after   16 cycles
 SCF Done:  E(RM062X) =  -1638.37785775     A.U. after   12 cycles
 SCF Done:  E(RM062X) =  -1638.37831146     A.U. after   13 cycles
 SCF Done:  E(RM062X) =  -1638.37841613     A.U. after   12 cycles
 SCF Done:  E(RM062X) =  -1638.37844771     A.U. after   11 cycles
 SCF Done:  E(RM062X) =  -1638.38326542     A.U. after    9 cycles
 Optimization completed.
    -- Stationary point found.
 Normal termination of Gaussian 09 at Tue Feb 19 12:14:53 2019.
 Gaussian 09:  ES64L-G09RevE.01 30-Nov-2015

 ----------------------------------------------------------------------
 # M062X/Gen 6D SCF=Tight INT(grid=ultrafine) OPT IOP(2/17=4) SCRF=(SMD
 ,Solvent=n-Pentadecane) Freq=Noraman maxdisk=2684354560 geom=check gue
 ss=read IOP(2/17=4)
 ----------------------------------------------------------------------

 ---------------------------------------------
 3Chloro4TFM_EtO.M062X_6-31pGd_opt_Pentadecane
 ---------------------------------------------
 Structure from the checkpoint file:  "3Chloro4TFM_EtO.M062X_6-31pGd_opt_Pentadecane.chk"
 Charge = -1 Multiplicity = 1

 SCF Done:  E(RM062X) =  -1638.38326542     A.U. after    2 cycles
 SCF Done:  E(RM062X) =  -1638.38326552     A.U. after    8 cycles
 SCF Done:  E(RM062X) =  -1638.38326480     A.U. after   10 cycles
 SCF Done:  E(RM062X) =  -1638.38326564     A.U. after   10 cycles
 SCF Done:  E(RM062X) =  -1638.38326569     A.U. after    8 cycles
 SCF Done:  E(RM062X) =  -1638.38326574     A.U. after    8 cycles
 SCF Done:  E(RM062X) =  -1638.38326576     A.U. after    8 cycles
 SCF Done:  E(RM062X) =  -1638.38326578     A.U. after    8 cycles
 Optimization completed.
    -- Stationary point found.
 Normal termination of Gaussian 09 at Tue Feb 19 12:39:31 2019.

 ----------------------------------------------------------------------
 #N Geom=AllCheck Guess=TCheck SCRF=Check Test GenChk RM062X/ChkBas Fre
 q
 ----------------------------------------------------------------------

 Structure from the checkpoint file:  "3Chloro4TFM_EtO.M062X_6-31pGd_opt_Pentadecane.chk"
 ---------------------------------------------
 3Chloro4TFM_EtO.M062X_6-31pGd_opt_Pentadecane
 ---------------------------------------------
 Charge = -1 Multiplicity = 1

                         Standard orientation:
 ---------------------------------------------------------------------
 Center     Atomic      Atomic             Coordinates (Angstroms)
 Number     Number       Type             X           Y           Z
 ---------------------------------------------------------------------
      1          6           0       -6.067524   -3.207110    0.000933
      2          6           0       -5.115808   -2.014369    0.000513
      3          6           0       -3.658683   -2.461125   -0.000415
      4          7           0       -2.783305   -1.307313   -0.000841
      5          6           0       -1.441837   -1.471183   -0.000253
      6          8           0       -0.896471   -2.578749    0.000357
      7          7           0       -0.746623   -0.267774   -0.000286
      8          6           0        0.617663   -0.089701   -0.000122
      9          6           0        1.561282   -1.136178   -0.000143
     10          6           0        1.085997    1.242196   -0.000027
     11          6           0        2.441019    1.511489    0.000048
     12          6           0        3.388647    0.480934    0.000036
     13          6           0        2.914097   -0.833287   -0.000058
     14          1           0       -7.112680   -2.880830    0.001645
     15          1           0       -5.913056   -3.835933    0.885776
     16          1           0       -5.914181   -3.835668   -0.884294
     17          1           0       -5.297544   -1.382460    0.878132
     18          1           0       -5.298591   -1.382262   -0.876746
     19          1           0       -3.455677   -3.086005   -0.881388
     20          1           0       -3.454505   -3.086128    0.880180
     21          1           0       -3.205375   -0.362146   -0.001256
     22          1           0       -1.305414    0.614854   -0.000283
     23          1           0        1.228918   -2.164778   -0.000169
     24          1           0        0.359297    2.050062   -0.000049
     25          1           0        2.779011    2.542450    0.000134
     26         17           0        4.034889   -2.179540   -0.000041
     27          6           0        4.849325    0.801615    0.000164
     28          9           0        5.500265    0.314847    1.078908
     29          9           0        5.070085    2.132218    0.000221
     30          9           0        5.500457    0.314905   -1.078468
     31          8           0       -4.036615    1.234461   -0.001688
     32          8           0       -2.006468    2.186310    0.000076
     33          6           0       -3.270171    2.228706   -0.000530
     34          6           0       -3.891879    3.631579    0.000042
     35          6           0       -5.414114    3.652171    0.001072
     36          1           0       -3.493433    4.160244   -0.874907
     37          1           0       -3.492108    4.160323    0.874304
     38          1           0       -5.812255    3.138641   -0.879172
     39          1           0       -5.793847    4.680946    0.001626
     40          1           0       -5.811081    3.138155    0.881577
 ---------------------------------------------------------------------

 SCF Done:  E(RM062X) =  -1638.38326578     A.U. after    1 cycles

 The electronic state is 1-A.
 Alpha  occ. eigenvalues -- -102.63206 -25.26191 -25.25566 -25.25566 -19.54730
 Alpha  occ. eigenvalues --  -19.52773 -19.52547 -14.72373 -14.70553 -10.77076
 Alpha  occ. eigenvalues --  -10.61661 -10.58355 -10.57456 -10.56354 -10.53411
 Alpha  occ. eigenvalues --  -10.52647 -10.52144 -10.50989 -10.50603 -10.49415
 Alpha  occ. eigenvalues --  -10.49350 -10.48124 -10.47877  -9.77863  -7.50265
 Alpha  occ. eigenvalues --   -7.49610  -7.49587  -1.42366  -1.33187  -1.32717
 Alpha  occ. eigenvalues --   -1.10866  -1.08987  -0.99652  -0.99065  -0.96514
 Alpha  occ. eigenvalues --   -0.95071  -0.89231  -0.84196  -0.82412  -0.80211
 Alpha  occ. eigenvalues --   -0.79301  -0.76090  -0.72566  -0.68104  -0.66843
 Alpha  occ. eigenvalues --   -0.66433  -0.64640  -0.64164  -0.63070  -0.61176
 Alpha  occ. eigenvalues --   -0.60430  -0.56439  -0.54940  -0.53036  -0.52864
 Alpha  occ. eigenvalues --   -0.51858  -0.50046  -0.49849  -0.49062  -0.48757
 Alpha  occ. eigenvalues --   -0.48333  -0.47651  -0.46808  -0.46791  -0.46165
 Alpha  occ. eigenvalues --   -0.46130  -0.45200  -0.45139  -0.43966  -0.42906
 Alpha  occ. eigenvalues --   -0.42702  -0.41474  -0.40583  -0.40218  -0.39591
 Alpha  occ. eigenvalues --   -0.38761  -0.37420  -0.37217  -0.36715  -0.36019
 Alpha  occ. eigenvalues --   -0.35054  -0.34575  -0.34001  -0.33761  -0.32121
 Alpha  occ. eigenvalues --   -0.28312  -0.26389  -0.25810  -0.25166  -0.24913
 Alpha  occ. eigenvalues --   -0.24803  -0.21410
 Alpha virt. eigenvalues --    0.05078   0.05866   0.05892   0.06623   0.06775
 Alpha virt. eigenvalues --    0.07369   0.07902   0.08428   0.08728   0.09015
 Alpha virt. eigenvalues --    0.09359   0.09612   0.10333   0.10611   0.10844

 Mulliken charges:
               1
     1  C   -0.806558
     2  C   -0.349533
     3  C   -0.157928
     4  N   -0.796214
     5  C    0.825194
     6  O   -0.623377
     7  N   -0.665418
     8  C   -0.165965
     9  C   -0.237390
    10  C   -0.416360
    11  C   -0.059056
    12  C   -1.411189
    13  C    0.455925
    14  H    0.208420
    15  H    0.207904
    16  H    0.207910
    17  H    0.237250
    18  H    0.237305
    19  H    0.218793
    20  H    0.218844
    21  H    0.529298
    22  H    0.515598
    23  H    0.292556
    24  H    0.278189
    25  H    0.241263
    26  Cl   0.193342
    27  C    1.542995
    28  F   -0.281977
    29  F   -0.350008
    30  F   -0.281964
    31  O   -0.642549
    32  O   -0.696772
    33  C    0.710937
    34  C   -0.483757
    35  C   -0.749705
    36  H    0.217416
    37  H    0.217406
    38  H    0.216102
    39  H    0.187017
    40  H    0.216056
 Sum of Mulliken charges =  -1.00000

 Dipole moment (field-independent basis, Debye):
    X=              0.9991    Y=              0.2401    Z=              0.0013  Tot=              1.0275
 Quadrupole moment (field-independent basis, Debye-Ang):
   XX=           -209.7388   YY=           -165.6861   ZZ=           -147.9866
   XY=             11.1472   XZ=             -0.0119   YZ=              0.0022

  Exact polarizability: 328.370   5.645 253.942   0.014   0.009 148.484
 Approx polarizability: 297.001   2.687 265.225   0.025   0.007 175.598

                      1                      2                      3
                      A                      A                      A
 Frequencies --      9.6856                22.2464                29.5872
 Red. masses --      2.0941                 6.3815                 4.9741
 Frc consts  --      0.0001                 0.0019                 0.0026
 IR Inten    --      0.1343                 0.1145                 0.8532

                      4                      5                      6
                      A                      A                      A
 Frequencies --     41.4982                47.0957                49.0245
 Red. masses --      6.8010                 6.4771                 3.7247
 Frc consts  --      0.0069                 0.0085                 0.0053
 IR Inten    --      0.9527                 4.2416                 0.0387

                      7                      8                      9
                      A                      A                      A
 Frequencies --     54.1210                56.4207                69.9564
 Red. masses --      4.6699                 4.2713                 3.4273
 Frc consts  --      0.0081                 0.0080                 0.0099
 IR Inten    --      2.0299                 0.5677                 0.0340

                     10                     11                     12
                      A                      A                      A
 Frequencies --     76.8719                85.8869               101.3428
 Red. masses --      4.6810                 5.1956                 6.5055
 Frc consts  --      0.0163                 0.0226                 0.0394
 IR Inten    --      0.9473                 8.2171                 6.7095

                     13                     14                     15
                      A                      A                      A
 Frequencies --    123.8852               140.0333               157.9695
 Red. masses --      5.1922                 8.1569                17.1791
 Frc consts  --      0.0470                 0.0942                 0.2526
 IR Inten    --      1.5595                13.3631                 3.5524

                     16                     17                     18
                      A                      A                      A
 Frequencies --    176.3559               177.4569               190.4196
 Red. masses --      3.1432                 5.2211                 6.3973
 Frc consts  --      0.0576                 0.0969                 0.1367
 IR Inten    --      4.6872                25.4546                 1.2770

                     19                     20                     21
                      A                      A                      A
 Frequencies --    210.5603               235.0389               243.3231
 Red. masses --      6.8322                 1.2127                 5.4123
 Frc consts  --      0.1785                 0.0395                 0.1888
 IR Inten    --      1.8128                 0.0004                 0.1568

                     22                     23                     24
                      A                      A                      A
 Frequencies --    250.4582               268.8440               306.6966
 Red. masses --      1.1075                 6.0544                 4.0068
 Frc consts  --      0.0409                 0.2578                 0.2221
 IR Inten    --      0.5366                 6.5246                12.8491

                     25                     26                     27
                      A                      A                      A
 Frequencies --    321.1374               343.9521               387.8020
 Red. masses --     12.1566                 5.0029                 7.6650
 Frc consts  --      0.7387                 0.3487                 0.6792
 IR Inten    --      1.5331                11.4550                22.0177

                     28                     29                     30
                      A                      A                      A
 Frequencies --    421.6556               423.3697               459.0302
 Red. masses --      7.4454                 6.0015                 3.8031
 Frc consts  --      0.7799                 0.6338                 0.4721
 IR Inten    --      0.8122                 5.9538                 2.6474

                     31                     32                     33
                      A                      A                      A
 Frequencies --    467.8778               514.1054               528.3711
 Red. masses --      9.2646                 5.2790                 5.6810
 Frc consts  --      1.1949                 0.8221                 0.9344
 IR Inten    --     15.6898                49.9796                25.2169

                     34                     35                     36
                      A                      A                      A
 Frequencies --    565.8171               583.4328               593.8967
 Red. masses --     13.1953                 1.9600                10.8777
 Frc consts  --      2.4890                 0.3931                 2.2605
 IR Inten    --      1.3871                 0.4220                 0.8441

                     37                     38                     39
                      A                      A                      A
 Frequencies --    637.4813               649.5230               660.2770
 Red. masses --      3.7649                 7.0570                 4.7327
 Frc consts  --      0.9014                 1.7541                 1.2157
 IR Inten    --      7.0045                23.6138                40.6654

                     40                     41                     42
                      A                      A                      A
 Frequencies --    717.4462               739.5687               749.6560
 Red. masses --      7.8287                 4.6636                 1.1994
 Frc consts  --      2.3742                 1.5029                 0.3971
 IR Inten    --     30.7394                 0.4015                13.6596

                     43                     44                     45
                      A                      A                      A
 Frequencies --    763.5396               768.7972               789.9361
 Red. masses --      2.2664                 8.6823                 7.9484
 Frc consts  --      0.7785                 3.0235                 2.9222
 IR Inten    --     44.0608                 3.8053                 9.8699

                     46                     47                     48
                      A                      A                      A
 Frequencies --    805.7137               825.7608               867.7368
 Red. masses --      1.4684                 1.4502                 1.3947
 Frc consts  --      0.5616                 0.5826                 0.6187
 IR Inten    --      2.9873                12.2765                17.4483

                     49                     50                     51
                      A                      A                      A
 Frequencies --    891.1323               902.3620               917.2629
 Red. masses --      4.0064                 1.1566                 1.4254
 Frc consts  --      1.8745                 0.5549                 0.7066
 IR Inten    --     43.3472                 5.5529                38.2484

                     52                     53                     54
                      A                      A                      A
 Frequencies --    923.0552               949.6758               964.2382
 Red. masses --      1.9884                 3.8233                 1.0858
 Frc consts  --      0.9982                 2.0316                 0.5948
 IR Inten    --      8.4655                 6.3958               110.8725

                     55                     56                     57
                      A                      A                      A
 Frequencies --   1008.1862              1027.5729              1034.4733
 Red. masses --      1.2936                 1.6448                 5.0094
 Frc consts  --      0.7747                 1.0233                 3.1585
 IR Inten    --      3.3094                 4.8020                18.3284

                     58                     59                     60
                      A                      A                      A
 Frequencies --   1051.9773              1083.8172              1108.3253
 Red. masses --      4.1692                 2.6240                 1.7666
 Frc consts  --      2.7184                 1.8160                 1.2786
 IR Inten    --     45.4507                15.6157                 0.7658

                     61                     62                     63
                      A                      A                      A
 Frequencies --   1116.8381              1133.3572              1155.5046
 Red. masses --      2.3734                 2.5918                 2.4828
 Frc consts  --      1.7443                 1.9615                 1.9532
 IR Inten    --      4.8026               271.8533                54.3381

                     64                     65                     66
                      A                      A                      A
 Frequencies --   1174.4967              1177.0633              1182.5967
 Red. masses --      2.8695                12.8186                 1.6095
 Frc consts  --      2.3322                10.4639                 1.3262
 IR Inten    --     83.4905               321.9144                 0.0054

                     67                     68                     69
                      A                      A                      A
 Frequencies --   1192.1565              1214.0431              1277.4955
 Red. masses --      4.4415                 1.7700                 1.1871
 Frc consts  --      3.7192                 1.5371                 1.1415
 IR Inten    --      6.3930               139.2679                 0.0065

                     70                     71                     72
                      A                      A                      A
 Frequencies --   1277.9949              1289.3879              1306.2170
 Red. masses --      1.5197                 1.1856                 2.0879
 Frc consts  --      1.4624                 1.1614                 2.0989
 IR Inten    --      4.7672                 0.1162               584.1719

                     73                     74                     75
                      A                      A                      A
 Frequencies --   1327.7607              1329.3604              1335.5786
 Red. masses --      2.3670                 1.0789                 1.6912
 Frc consts  --      2.4586                 1.1234                 1.7774
 IR Inten    --     32.4221                 0.0321                95.1799

                     76                     77                     78
                      A                      A                      A
 Frequencies --   1356.2940              1370.2816              1394.3492
 Red. masses --      2.5798                 2.5034                 5.3636
 Frc consts  --      2.7960                 2.7695                 6.1440
 IR Inten    --    892.2452                55.5183               494.8301

                     79                     80                     81
                      A                      A                      A
 Frequencies --   1426.5105              1427.5144              1436.7217
 Red. masses --      1.4249                 1.3175                 1.4897
 Frc consts  --      1.7084                 1.5818                 1.8118
 IR Inten    --     11.9401                26.2076                 7.0237

                     82                     83                     84
                      A                      A                      A
 Frequencies --   1457.9742              1473.9602              1485.4070
 Red. masses --      4.1234                 2.4076                 1.4976
 Frc consts  --      5.1642                 3.0818                 1.9469
 IR Inten    --     98.5347               336.4137                99.2173

                     85                     86                     87
                      A                      A                      A
 Frequencies --   1503.9671              1514.2516              1519.5723
 Red. masses --      1.0740                 1.0395                 1.0393
 Frc consts  --      1.4314                 1.4043                 1.4140
 IR Inten    --     10.5023                 7.1352                 8.6174

                     88                     89                     90
                      A                      A                      A
 Frequencies --   1523.3588              1523.9326              1538.3060
 Red. masses --      1.0746                 1.0966                 1.0874
 Frc consts  --      1.4693                 1.5004                 1.5161
 IR Inten    --     28.1386                34.4061                13.6934

                     91                     92                     93
                      A                      A                      A
 Frequencies --   1570.9509              1603.5901              1632.0001
 Red. masses --      3.3656                 3.8375                 2.2880
 Frc consts  --      4.8938                 5.8141                 3.5904
 IR Inten    --    165.7035               169.6597                82.4140

                     94                     95                     96
                      A                      A                      A
 Frequencies --   1674.9202              1680.0320              1714.2548
 Red. masses --      6.8599                 2.7312                 3.3807
 Frc consts  --     11.3385                 4.5419                 5.8533
 IR Inten    --   1253.8215               271.4365               499.1217

                     97                     98                     99
                      A                      A                      A
 Frequencies --   1784.0240              3017.6711              3050.0004
 Red. masses --      2.9112                 1.0988                 1.0579
 Frc consts  --      5.4591                 5.8956                 5.7985
 IR Inten    --    465.1871              1477.2588                98.7124

                    100                    101                    102
                      A                      A                      A
 Frequencies --   3069.3188              3073.3545              3075.8511
 Red. masses --      1.0368                 1.0491                 1.1051
 Frc consts  --      5.7547                 5.8382                 6.1598
 IR Inten    --     49.2445                45.5050                30.6570

                    103                    104                    105
                      A                      A                      A
 Frequencies --   3079.0657              3084.5692              3110.9432
 Red. masses --      1.0517                 1.0605                 1.1012
 Frc consts  --      5.8745                 5.9448                 6.2790
 IR Inten    --     29.0642                30.2597                14.8637

                    106                    107                    108
                      A                      A                      A
 Frequencies --   3118.2563              3141.1178              3142.9869
 Red. masses --      1.1035                 1.1039                 1.0981
 Frc consts  --      6.3216                 6.4173                 6.3912
 IR Inten    --      2.0334                76.8264                60.8758

                    109                    110                    111
                      A                      A                      A
 Frequencies --   3144.9907              3162.3092              3215.3416
 Red. masses --      1.1012                 1.1025                 1.0916
 Frc consts  --      6.4174                 6.4956                 6.6492
 IR Inten    --     39.7312                42.7457              1595.5946

                    112                    113                    114
                      A                      A                      A
 Frequencies --   3235.1284              3251.9446              3304.3829
 Red. masses --      1.0909                 1.0941                 1.0914
 Frc consts  --      6.7271                 6.8169                 7.0212
 IR Inten    --     59.8478                 3.0774                22.4191

 - Thermochemistry -
 -------------------
 Temperature   298.150 Kelvin.  Pressure   1.00000 Atm.
 Atom     1 has atomic number  6 and mass  12.00000

 Molecular mass:   353.08798 amu.
 Principal axes and moments of inertia in atomic units:
                           1         2         3
     Eigenvalues --  5082.66355********************
           X            1.00000   0.00216  -0.00001
           Y           -0.00216   1.00000   0.00000
           Z            0.00001  -0.00000   1.00000
 This molecule is an asymmetric top.
 Rotational symmetry number  1.
 Warning -- assumption of classical behavior for rotation
           may cause significant error
 Rotational temperatures (Kelvin)      0.01704     0.00459     0.00367
 Rotational constants (GHZ):           0.35508     0.09554     0.07647
 Zero-point vibrational energy     807192.2 (Joules/Mol)
                                  192.92357 (Kcal/Mol)
 Warning -- explicit consideration of  36 degrees of freedom as
           vibrations may cause significant error
 Vibrational temperatures:     13.94    32.01    42.57    59.71    67.76
          (Kelvin)             70.54    77.87    81.18   100.65   110.60
                              123.57   145.81   178.24   201.48   227.28
                              253.74   255.32   273.97   302.95   338.17
                              350.09   360.35   386.81   441.27   462.04
                              494.87   557.96   606.67   609.13   660.44
                              673.17   739.68   760.21   814.08   839.43
                              854.48   917.19   934.52   949.99  1032.24
                             1064.07  1078.59  1098.56  1106.13  1136.54
                             1159.24  1188.08  1248.48  1282.14  1298.30
                             1319.74  1328.07  1366.37  1387.32  1450.55
                             1478.45  1488.37  1513.56  1559.37  1594.63
                             1606.88  1630.65  1662.51  1689.84  1693.53
                             1701.49  1715.25  1746.74  1838.03  1838.75
                             1855.14  1879.35  1910.35  1912.65  1921.60
                             1951.40  1971.53  2006.16  2052.43  2053.87
                             2067.12  2097.70  2120.70  2137.17  2163.87
                             2178.67  2186.32  2191.77  2192.60  2213.28
                             2260.25  2307.21  2348.08  2409.83  2417.19
                             2466.43  2566.81  4341.75  4388.26  4416.06
                             4421.87  4425.46  4430.08  4438.00  4475.95
                             4486.47  4519.36  4522.05  4524.93  4549.85
                             4626.15  4654.62  4678.82  4754.26

 Zero-point correction=                           0.307443 (Hartree/Particle)
 Thermal correction to Energy=                    0.331956
 Thermal correction to Enthalpy=                  0.332900
 Thermal correction to Gibbs Free Energy=         0.247468
 Sum of electronic and zero-point Energies=          -1638.075823
 Sum of electronic and thermal Energies=             -1638.051310
 Sum of electronic and thermal Enthalpies=           -1638.050366
 Sum of electronic and thermal Free Energies=        -1638.135798

                     E (Thermal)             CV                S
                      KCal/Mol        Cal/Mol-Kelvin    Cal/Mol-Kelvin
 Total                  208.305             85.513            179.807
 Electronic               0.000              0.000              0.000
 Translational            0.889              2.981             43.478
 Rotational               0.889              2.981             36.070
 Vibrational            206.528             79.551            100.258
 Vibration     1          0.593              1.987              8.075
 Vibration     2          0.593              1.985              6.423
 Vibration     3          0.593              1.984              5.857
 Vibration     4          0.594              1.981              5.186
 Vibration     5          0.595              1.979              4.936
 Vibration     6          0.595              1.978              4.856
 Vibration     7          0.596              1.976              4.661
 Vibration     8          0.596              1.975              4.579
 Vibration     9          0.598              1.968              4.155
 Vibration    10          0.599              1.965              3.969
 Vibration    11          0.601              1.959              3.752
 Vibration    12          0.604              1.948              3.428
 Vibration    13          0.610              1.929              3.039
 Vibration    14          0.615              1.913              2.803
 Vibration    15          0.621              1.894              2.574
 Vibration    16          0.628              1.871              2.367
 Vibration    17          0.628              1.870              2.355
 Vibration    18          0.634              1.853              2.224
 Vibration    19          0.643              1.825              2.039
 Vibration    20          0.655              1.787              1.840
 Vibration    21          0.659              1.774              1.778
 Vibration    22          0.663              1.762              1.727
 Vibration    23          0.673              1.730              1.604
 Vibration    24          0.697              1.661              1.380
 Vibration    25          0.707              1.633              1.304
 Vibration    26          0.723              1.588              1.194
 Vibration    27          0.756              1.496              1.009
 Vibration    28          0.784              1.423              0.886
 Vibration    29          0.786              1.419              0.881
 Vibration    30          0.817              1.341              0.769
 Vibration    31          0.825              1.321              0.744
 Vibration    32          0.869              1.219              0.624
 Vibration    33          0.883              1.187              0.591
 Vibration    34          0.922              1.105              0.512
 Vibration    35          0.940              1.067              0.479
 Vibration    36          0.952              1.045              0.460

 Normal termination of Gaussian 09 at Tue Feb 19 13:28:49 2019.
