 Gaussian 09, Revision E.01,

 ----------------------------------------------------------------------
 # M062X/Gen 6D SCF=Tight INT(grid=ultrafine) OPT IOP(2/17=4) SCRF=(SMD
 ,Solvent=n-Pentadecane) maxdisk=2147483648
 ----------------------------------------------------------------------

 -----------------------------------
 4OCF3.M062X_6-31pGd_opt_Pentadecane
 -----------------------------------
 Symbolic Z-matrix:
 Charge =  0 Multiplicity = 1

 SCF Done:  E(RM062X) =  -986.171050098     A.U. after   15 cycles
 SCF Done:  E(RM062X) =  -986.176040932     A.U. after   13 cycles
 SCF Done:  E(RM062X) =  -986.177886507     A.U. after   14 cycles
 SCF Done:  E(RM062X) =  -986.178272715     A.U. after   13 cycles
 SCF Done:  E(RM062X) =  -986.178561400     A.U. after   11 cycles
 SCF Done:  E(RM062X) =  -986.178636489     A.U. after   12 cycles
 SCF Done:  E(RM062X) =  -986.178675052     A.U. after   12 cycles
 SCF Done:  E(RM062X) =  -986.178686783     A.U. after   11 cycles
 SCF Done:  E(RM062X) =  -986.178702221     A.U. after   12 cycles
 SCF Done:  E(RM062X) =  -986.178721898     A.U. after   12 cycles
 SCF Done:  E(RM062X) =  -986.178911594     A.U. after   12 cycles
 SCF Done:  E(RM062X) =  -986.178931386     A.U. after   12 cycles
 SCF Done:  E(RM062X) =  -986.178936808     A.U. after   11 cycles
 SCF Done:  E(RM062X) =  -986.178941319     A.U. after   11 cycles
 SCF Done:  E(RM062X) =  -986.178943299     A.U. after   11 cycles
 SCF Done:  E(RM062X) =  -986.178944484     A.U. after   11 cycles
 SCF Done:  E(RM062X) =  -986.178945332     A.U. after   11 cycles
 SCF Done:  E(RM062X) =  -986.178945501     A.U. after    9 cycles
 SCF Done:  E(RM062X) =  -986.178945529     A.U. after    8 cycles
 Optimization completed.
    -- Stationary point found.
 Normal termination of Gaussian 09 at Fri Feb 22 17:32:52 2019.
 Gaussian 09:  ES64L-G09RevE.01 30-Nov-2015

 ----------------------------------------------------------------------
 # M062X/Gen 6D SCF=Tight INT(grid=ultrafine) SCRF=(SMD,Solvent=n-Penta
 decane) Freq=Noraman maxdisk=2147483648 geom=check guess=read IOP(2/17
 =4)
 ----------------------------------------------------------------------

 -----------------------------------
 4OCF3.M062X_6-31pGd_opt_Pentadecane
 -----------------------------------
 Structure from the checkpoint file:  "4OCF3.M062X_6-31pGd_opt_Pentadecane.chk"
 Charge =  0 Multiplicity = 1

                         Standard orientation:
 ---------------------------------------------------------------------
 Center     Atomic      Atomic             Coordinates (Angstroms)
 Number     Number       Type             X           Y           Z
 ---------------------------------------------------------------------
      1          6           0       -2.469529    0.401047   -0.031394
      2          6           0       -2.068822   -0.928351    0.017206
      3          6           0       -0.707724   -1.215287   -0.012758
      4          6           0        0.253626   -0.201916   -0.094916
      5          6           0       -0.173480    1.132487   -0.143050
      6          6           0       -1.532465    1.422319   -0.109564
      7          7           0        1.600254   -0.593795   -0.152066
      8          6           0        2.718041    0.209826   -0.004062
      9          7           0        3.901229   -0.479919   -0.070730
     10          8           0        2.665945    1.416245    0.191526
     11          6           0        5.162382    0.249145   -0.087322
     12          6           0        6.331072   -0.704954    0.121497
     13          6           0        7.666338    0.033615    0.108898
     14          1           0       -0.391626   -2.254776    0.031040
     15          1           0        0.550787    1.932724   -0.199740
     16          1           0        1.754924   -1.594295   -0.162367
     17          1           0        3.900094   -1.387913   -0.520672
     18          1           0        5.126946    0.990994    0.715044
     19          1           0        5.282131    0.798315   -1.032371
     20          1           0        6.326706   -1.468609   -0.668519
     21          1           0        6.196637   -1.229160    1.075332
     22          1           0        7.826141    0.545320   -0.846617
     23          1           0        8.500642   -0.657369    0.262007
     24          1           0        7.705205    0.787295    0.902975
     25          8           0       -3.799777    0.833056   -0.005579
     26          6           0       -4.802953   -0.052138    0.045364
     27          9           0       -5.946861    0.624090    0.044120
     28          9           0       -4.815539   -0.890529   -1.004365
     29          9           0       -4.773357   -0.814111    1.151425
     30          1           0       -2.780820   -1.742547    0.081322
     31          1           0       -1.874596    2.451815   -0.145456
 ---------------------------------------------------------------------

 SCF Done:  E(RM062X) =  -986.178945529     A.U. after    1 cycles

 The electronic state is 1-A.
 Alpha  occ. eigenvalues --  -25.31586 -25.31409 -25.31390 -19.72172 -19.61565
 Alpha  occ. eigenvalues --  -14.80603 -14.78842 -10.87072 -10.68922 -10.63184
 Alpha  occ. eigenvalues --  -10.61109 -10.58101 -10.57178 -10.56894 -10.56510
 Alpha  occ. eigenvalues --  -10.55923 -10.55178 -10.53924  -1.49381  -1.39430
 Alpha  occ. eigenvalues --   -1.38967  -1.24597  -1.18168  -1.06394  -1.03228
 Alpha  occ. eigenvalues --   -0.97129  -0.89198  -0.87410  -0.86101  -0.81699
 Alpha  occ. eigenvalues --   -0.78162  -0.75030  -0.73416  -0.71899  -0.70449
 Alpha  occ. eigenvalues --   -0.69450  -0.68764  -0.66036  -0.63614  -0.61823
 Alpha  occ. eigenvalues --   -0.59745  -0.59100  -0.57557  -0.56050  -0.55546
 Alpha  occ. eigenvalues --   -0.55058  -0.54186  -0.53926  -0.52616  -0.52504
 Alpha  occ. eigenvalues --   -0.52003  -0.50892  -0.50303  -0.49748  -0.48096
 Alpha  occ. eigenvalues --   -0.47695  -0.46825  -0.46314  -0.44084  -0.42806
 Alpha  occ. eigenvalues --   -0.41973  -0.40800  -0.40129  -0.37306  -0.35064
 Alpha  occ. eigenvalues --   -0.32591  -0.31985  -0.26988
 Alpha virt. eigenvalues --    0.00286   0.00842   0.01812   0.02359   0.03036
 Alpha virt. eigenvalues --    0.03591   0.03699   0.04181   0.04672   0.05162
 Alpha virt. eigenvalues --    0.05401   0.05994   0.06649   0.07071   0.07238

 Mulliken charges:
               1
     1  C   -0.283156
     2  C    0.471335
     3  C   -1.258211
     4  C    0.140812
     5  C    0.801878
     6  C   -0.733871
     7  N   -0.674800
     8  C    0.767538
     9  N   -0.601420
    10  O   -0.607602
    11  C   -0.184516
    12  C   -0.331197
    13  C   -0.735771
    14  H    0.218244
    15  H    0.274018
    16  H    0.434119
    17  H    0.408601
    18  H    0.244090
    19  H    0.218563
    20  H    0.209476
    21  H    0.229330
    22  H    0.217312
    23  H    0.217510
    24  H    0.219210
    25  O   -0.429097
    26  C    1.258170
    27  F   -0.324257
    28  F   -0.329361
    29  F   -0.328659
    30  H    0.245150
    31  H    0.246563
 Sum of Mulliken charges =  -0.00000

 Dipole moment (field-independent basis, Debye):
    X=              4.8145    Y=             -4.3753    Z=             -1.0884  Tot=              6.5959
 Quadrupole moment (field-independent basis, Debye-Ang):
   XX=           -101.1984   YY=            -99.3763   ZZ=           -108.5349
   XY=            -10.6976   XZ=             -3.5571   YZ=              0.3203

  Exact polarizability: 243.710  -1.713 163.359  -1.701  -0.583 107.978
 Approx polarizability: 212.142  -2.680 193.483  -1.979   0.115 124.843

                      1                      2                      3
                      A                      A                      A
 Frequencies --      6.6802                14.0400                36.2697
 Red. masses --      6.7199                 3.3615                 2.9909
 Frc consts  --      0.0002                 0.0004                 0.0023
 IR Inten    --      0.6849                 0.6926                 0.8069

                      4                      5                      6
                      A                      A                      A
 Frequencies --     51.0648                59.0421                69.8820
 Red. masses --      4.6100                 6.1019                 3.0829
 Frc consts  --      0.0071                 0.0125                 0.0089
 IR Inten    --      2.8088                 5.4386                 3.8880

                      7                      8                      9
                      A                      A                      A
 Frequencies --     88.6627               117.2508               156.3009
 Red. masses --      6.4364                 6.6760                 5.3136
 Frc consts  --      0.0298                 0.0541                 0.0765
 IR Inten    --      0.2504                 4.4073                 5.0103

                     10                     11                     12
                      A                      A                      A
 Frequencies --    163.5695               197.6013               232.3869
 Red. masses --      5.3531                 3.8165                 3.7840
 Frc consts  --      0.0844                 0.0878                 0.1204
 IR Inten    --      0.8068                 0.2138                 4.3328

                     13                     14                     15
                      A                      A                      A
 Frequencies --    240.1675               298.0223               341.3769
 Red. masses --      1.1732                 6.3435                 4.3596
 Frc consts  --      0.0399                 0.3320                 0.2993
 IR Inten    --      0.2554                 1.4269                29.3470

                     16                     17                     18
                      A                      A                      A
 Frequencies --    350.3876               355.8497               374.1532
 Red. masses --      3.7291                 2.2213                 2.6162
 Frc consts  --      0.2697                 0.1657                 0.2158
 IR Inten    --      8.7436                61.7244                18.6048

                     19                     20                     21
                      A                      A                      A
 Frequencies --    393.0954               423.9839               448.1482
 Red. masses --      6.3690                 3.1089                13.2959
 Frc consts  --      0.5798                 0.3293                 1.5733
 IR Inten    --      2.4805                 0.1270                 1.0853

                     22                     23                     24
                      A                      A                      A
 Frequencies --    477.2343               508.7730               527.2272
 Red. masses --      3.3722                 1.3825                 2.5410
 Frc consts  --      0.4525                 0.2108                 0.4161
 IR Inten    --     19.9814               169.6472                17.0681

                     25                     26                     27
                      A                      A                      A
 Frequencies --    539.4036               620.9570               627.6322
 Red. masses --      7.0928                16.5934                 7.2316
 Frc consts  --      1.2159                 3.7697                 1.6784
 IR Inten    --     17.0357                 2.4507                 7.8556

                     28                     29                     30
                      A                      A                      A
 Frequencies --    647.3058               707.8724               710.7086
 Red. masses --      7.2941                10.7620                 4.1319
 Frc consts  --      1.8007                 3.1772                 1.2297
 IR Inten    --      4.1242                 6.4606                 1.1151

                     31                     32                     33
                      A                      A                      A
 Frequencies --    754.1388               766.9564               786.7865
 Red. masses --      1.7549                 2.1513                 5.4723
 Frc consts  --      0.5880                 0.7456                 1.9959
 IR Inten    --     12.1775                 3.0304                 5.2796

                     34                     35                     36
                      A                      A                      A
 Frequencies --    814.8073               834.3445               864.0751
 Red. masses --      7.3396                 1.3354                 1.5695
 Frc consts  --      2.8710                 0.5477                 0.6904
 IR Inten    --     22.3744                12.6619                72.7822

                     37                     38                     39
                      A                      A                      A
 Frequencies --    880.5385               901.6366               933.6782
 Red. masses --      5.3004                 1.1859                 1.6807
 Frc consts  --      2.4213                 0.5680                 0.8632
 IR Inten    --      9.0379                 2.5659                 3.4555

                     40                     41                     42
                      A                      A                      A
 Frequencies --    961.6063               962.4547               994.7518
 Red. masses --      7.3412                 1.4167                 1.3191
 Frc consts  --      3.9996                 0.7732                 0.7690
 IR Inten    --     21.4183                 2.8160                 0.0603

                     43                     44                     45
                      A                      A                      A
 Frequencies --   1037.1620              1048.7544              1082.4350
 Red. masses --      2.8289                 3.8073                 2.5239
 Frc consts  --      1.7929                 2.4673                 1.7423
 IR Inten    --      4.9239                 2.6563                 2.9736

                     46                     47                     48
                      A                      A                      A
 Frequencies --   1149.2604              1155.4926              1164.3081
 Red. masses --      2.1422                 1.4234                 2.5107
 Frc consts  --      1.6670                 1.1197                 2.0053
 IR Inten    --     13.5177                11.0822                 4.4599

                     49                     50                     51
                      A                      A                      A
 Frequencies --   1181.9020              1211.1690              1213.4739
 Red. masses --      1.8151                12.0881                 1.1371
 Frc consts  --      1.4939                10.4477                 0.9865
 IR Inten    --      3.1375               411.9878                15.1277

                     52                     53                     54
                      A                      A                      A
 Frequencies --   1238.5185              1257.7911              1271.3676
 Red. masses --      2.0335                 2.3637                 6.1675
 Frc consts  --      1.8378                 2.2033                 5.8735
 IR Inten    --    660.1188                 4.0758               276.3898

                     55                     56                     57
                      A                      A                      A
 Frequencies --   1281.0254              1304.3080              1324.5898
 Red. masses --      1.3761                 3.5848                 1.1406
 Frc consts  --      1.3305                 3.5932                 1.1791
 IR Inten    --    145.3565                56.3283                 4.5252

                     58                     59                     60
                      A                      A                      A
 Frequencies --   1337.2845              1343.4816              1351.0831
 Red. masses --      2.0910                 1.8500                 1.8617
 Frc consts  --      2.2032                 1.9673                 2.0022
 IR Inten    --    684.7009               146.0327               236.5833

                     61                     62                     63
                      A                      A                      A
 Frequencies --   1355.4730              1424.0736              1436.6388
 Red. masses --      5.1541                 1.5197                 1.3258
 Frc consts  --      5.5793                 1.8158                 1.6123
 IR Inten    --    448.2655                 0.0945                 2.2986

                     64                     65                     66
                      A                      A                      A
 Frequencies --   1470.1044              1508.4127              1519.9485
 Red. masses --      3.0293                 1.0623                 1.0405
 Frc consts  --      3.8574                 1.4241                 1.4162
 IR Inten    --     32.7713                 6.9932                13.5733

                     67                     68                     69
                      A                      A                      A
 Frequencies --   1522.4128              1534.6522              1546.2459
 Red. masses --      1.0736                 1.1204                 1.6424
 Frc consts  --      1.4661                 1.5547                 2.3135
 IR Inten    --      3.1336                 2.3843               290.4332

                     70                     71                     72
                      A                      A                      A
 Frequencies --   1571.1251              1583.4529              1682.9415
 Red. masses --      2.6153                 2.4890                 6.0481
 Frc consts  --      3.8036                 3.6769                10.0926
 IR Inten    --     20.5218              1180.7382                19.1202

                     73                     74                     75
                      A                      A                      A
 Frequencies --   1703.3414              1798.5156              3056.0714
 Red. masses --      6.6005                 8.3108                 1.0698
 Frc consts  --     11.2831                15.8388                 5.8869
 IR Inten    --     18.6968               358.3438                34.5190

                     76                     77                     78
                      A                      A                      A
 Frequencies --   3060.5623              3078.6132              3107.1836
 Red. masses --      1.0654                 1.0365                 1.0970
 Frc consts  --      5.8799                 5.7880                 6.2400
 IR Inten    --     41.8760                34.1851                18.6683

                     79                     80                     81
                      A                      A                      A
 Frequencies --   3144.1005              3150.6794              3157.2475
 Red. masses --      1.0975                 1.1013                 1.1020
 Frc consts  --      6.3923                 6.4409                 6.4722
 IR Inten    --      1.5467                62.9092                33.8886

                     82                     83                     84
                      A                      A                      A
 Frequencies --   3212.8672              3246.6052              3267.6417
 Red. masses --      1.0911                 1.0923                 1.0936
 Frc consts  --      6.6360                 6.7836                 6.8800
 IR Inten    --     10.6703                 1.5808                 0.2218

                     85                     86                     87
                      A                      A                      A
 Frequencies --   3301.3296              3619.0274              3627.8758
 Red. masses --      1.0930                 1.0778                 1.0775
 Frc consts  --      7.0184                 8.3174                 8.3556
 IR Inten    --      8.4420                17.8778                65.9930

 - Thermochemistry -
 -------------------
 Temperature   298.150 Kelvin.  Pressure   1.00000 Atm.
 Atom     1 has atomic number  6 and mass  12.00000

 Molecular mass:   262.09291 amu.
 Principal axes and moments of inertia in atomic units:
                           1         2         3
     Eigenvalues --   873.07682********************
           X            0.99999  -0.00316   0.00036
           Y            0.00316   0.99999  -0.00235
           Z           -0.00035   0.00235   1.00000
 This molecule is an asymmetric top.
 Rotational symmetry number  1.
 Warning -- assumption of classical behavior for rotation
           may cause significant error
 Rotational temperatures (Kelvin)      0.09921     0.00531     0.00515
 Rotational constants (GHZ):           2.06710     0.11071     0.10738
 Zero-point vibrational energy     633311.3 (Joules/Mol)
                                  151.36502 (Kcal/Mol)
 Warning -- explicit consideration of  25 degrees of freedom as
           vibrations may cause significant error
 Vibrational temperatures:      9.61    20.20    52.18    73.47    84.95
          (Kelvin)            100.54   127.57   168.70   224.88   235.34
                              284.30   334.35   345.55   428.79   491.16
                              504.13   511.99   538.32   565.58   610.02
                              644.78   686.63   732.01   758.56   776.08
                              893.42   903.02   931.33  1018.47  1022.55
                             1085.04  1103.48  1132.01  1172.32  1200.43
                             1243.21  1266.90  1297.25  1343.35  1383.54
                             1384.76  1431.22  1492.24  1508.92  1557.38
                             1653.53  1662.49  1675.18  1700.49  1742.60
                             1745.92  1781.95  1809.68  1829.21  1843.11
                             1876.61  1905.79  1924.05  1932.97  1943.90
                             1950.22  2048.92  2067.00  2115.15  2170.27
                             2186.86  2190.41  2208.02  2224.70  2260.50
                             2278.23  2421.37  2450.73  2587.66  4397.00
                             4403.46  4429.43  4470.54  4523.65  4533.12
                             4542.57  4622.59  4671.13  4701.40  4749.87
                             5206.97  5219.70

 Zero-point correction=                           0.241216 (Hartree/Particle)
 Thermal correction to Energy=                    0.258819
 Thermal correction to Enthalpy=                  0.259763
 Thermal correction to Gibbs Free Energy=         0.190854
 Sum of electronic and zero-point Energies=           -985.937730
 Sum of electronic and thermal Energies=              -985.920126
 Sum of electronic and thermal Enthalpies=            -985.919182
 Sum of electronic and thermal Free Energies=         -985.988092

                     E (Thermal)             CV                S
                      KCal/Mol        Cal/Mol-Kelvin    Cal/Mol-Kelvin
 Total                  162.411             63.684            145.032
 Electronic               0.000              0.000              0.000
 Translational            0.889              2.981             42.590
 Rotational               0.889              2.981             33.836
 Vibrational            160.634             57.723             68.606
 Vibration     1          0.593              1.987              8.813
 Vibration     2          0.593              1.986              7.337
 Vibration     3          0.594              1.982              5.453
 Vibration     4          0.595              1.977              4.776
 Vibration     5          0.596              1.974              4.489
 Vibration     6          0.598              1.968              4.157
 Vibration     7          0.601              1.957              3.689
 Vibration     8          0.608              1.935              3.145
 Vibration     9          0.620              1.896              2.594
 Vibration    10          0.623              1.887              2.508
 Vibration    11          0.637              1.843              2.155
 Vibration    12          0.653              1.791              1.860
 Vibration    13          0.657              1.779              1.802
 Vibration    14          0.691              1.677              1.428
 Vibration    15          0.721              1.593              1.206
 Vibration    16          0.727              1.574              1.164
 Vibration    17          0.731              1.563              1.140
 Vibration    18          0.745              1.525              1.063
 Vibration    19          0.760              1.485              0.988
 Vibration    20          0.786              1.418              0.879
 Vibration    21          0.807              1.365              0.801
 Vibration    22          0.834              1.301              0.718
 Vibration    23          0.864              1.231              0.637
 Vibration    24          0.882              1.190              0.593
 Vibration    25          0.894              1.163              0.567

 Normal termination of Gaussian 09 at Fri Feb 22 18:15:18 2019.
