 Gaussian 09, Revision E.01,

 ----------------------------------------------------------------------
 # M062X/Gen 6D SCF=Tight INT(grid=ultrafine) OPT IOP(2/17=4) SCRF=(SMD
 ,Solvent=n-Pentadecane) maxdisk=2684354560
 ----------------------------------------------------------------------

 ---------------------------------------
 4OCF3_EtO.M062X_6-31pGd_opt_Pentadecane
 ---------------------------------------
 Symbolic Z-matrix:
 Charge = -1 Multiplicity = 1

 SCF Done:  E(RM062X) =  -1253.94779741     A.U. after   15 cycles
 SCF Done:  E(RM062X) =  -1253.98795351     A.U. after   13 cycles
 SCF Done:  E(RM062X) =  -1254.00214911     A.U. after   13 cycles
 SCF Done:  E(RM062X) =  -1254.00444063     A.U. after   12 cycles
 SCF Done:  E(RM062X) =  -1254.00512206     A.U. after   13 cycles
 SCF Done:  E(RM062X) =  -1253.99790126     A.U. after   16 cycles
 SCF Done:  E(RM062X) =  -1254.00527177     A.U. after   12 cycles
 SCF Done:  E(RM062X) =  -1254.00540536     A.U. after   12 cycles
 SCF Done:  E(RM062X) =  -1254.00548702     A.U. after   12 cycles
 SCF Done:  E(RM062X) =  -1254.00550269     A.U. after   11 cycles
 SCF Done:  E(RM062X) =  -1254.00552726     A.U. after   11 cycles
 SCF Done:  E(RM062X) =  -1254.00552685     A.U. after   11 cycles
 SCF Done:  E(RM062X) =  -1254.00552951     A.U. after   11 cycles
 SCF Done:  E(RM062X) =  -1254.00552986     A.U. after   10 cycles
 SCF Done:  E(RM062X) =  -1254.00553012     A.U. after    9 cycles
 SCF Done:  E(RM062X) =  -1254.00553026     A.U. after    9 cycles
 SCF Done:  E(RM062X) =  -1254.00553030     A.U. after    8 cycles
 SCF Done:  E(RM062X) =  -1254.00553034     A.U. after    8 cycles
 Optimization completed.
    -- Stationary point found.
 Normal termination of Gaussian 09 at Tue Feb 19 13:20:56 2019.
 Gaussian 09:  ES64L-G09RevE.01 30-Nov-2015

 ----------------------------------------------------------------------
 # M062X/Gen 6D SCF=Tight INT(grid=ultrafine) OPT IOP(2/17=4) SCRF=(SMD
 ,Solvent=n-Pentadecane) Freq=Noraman maxdisk=2684354560 geom=check gue
 ss=read IOP(2/17=4)
 ----------------------------------------------------------------------

 ---------------------------------------
 4OCF3_EtO.M062X_6-31pGd_opt_Pentadecane
 ---------------------------------------
 Structure from the checkpoint file:  "4OCF3_EtO.M062X_6-31pGd_opt_Pentadecane.chk"
 Charge = -1 Multiplicity = 1

 SCF Done:  E(RM062X) =  -1254.00553034     A.U. after    1 cycles
 Optimization completed.
    -- Stationary point found.
 Normal termination of Gaussian 09 at Tue Feb 19 13:22:39 2019.

 ----------------------------------------------------------------------
 #N Geom=AllCheck Guess=TCheck SCRF=Check Test GenChk RM062X/ChkBas Fre
 q
 ----------------------------------------------------------------------

 Structure from the checkpoint file:  "4OCF3_EtO.M062X_6-31pGd_opt_Pentadecane.chk"
 ---------------------------------------
 4OCF3_EtO.M062X_6-31pGd_opt_Pentadecane
 ---------------------------------------
 Charge = -1 Multiplicity = 1

                         Standard orientation:
 ---------------------------------------------------------------------
 Center     Atomic      Atomic             Coordinates (Angstroms)
 Number     Number       Type             X           Y           Z
 ---------------------------------------------------------------------
      1          6           0       -3.251281   -0.850635   -0.005670
      2          6           0       -2.611802    0.383265   -0.043983
      3          6           0       -1.222169    0.418014   -0.044910
      4          6           0       -0.454568   -0.760784   -0.009420
      5          6           0       -1.128792   -1.994641    0.027948
      6          6           0       -2.520084   -2.027644    0.030152
      7          7           0        0.924958   -0.606317   -0.011199
      8          6           0        1.880906   -1.604911   -0.009415
      9          7           0        3.150798   -1.131699   -0.015149
     10          8           0        1.616121   -2.813006   -0.007641
     11          6           0        4.270730   -2.048199    0.012936
     12          6           0        5.583304   -1.275690   -0.045166
     13          6           0        6.787850   -2.212140   -0.017409
     14          1           0       -0.705721    1.374116   -0.074495
     15          1           0       -0.559011   -2.913082    0.054436
     16          1           0        1.257219    0.377766   -0.035604
     17          1           0        3.338204   -0.115627    0.046381
     18          1           0        4.204604   -2.741763   -0.836482
     19          1           0        4.237778   -2.665228    0.923044
     20          1           0        5.627286   -0.574406    0.796544
     21          1           0        5.599422   -0.664280   -0.955441
     22          1           0        6.799933   -2.814050    0.899031
     23          1           0        7.727676   -1.651966   -0.061034
     24          1           0        6.770863   -2.903327   -0.868534
     25          8           0       -4.651043   -1.028184   -0.004446
     26          6           0       -5.467487    0.022891    0.007538
     27          9           0       -6.723848   -0.428555    0.029856
     28          9           0       -5.303366    0.816588    1.081194
     29          9           0       -5.341325    0.810731   -1.076315
     30          1           0       -3.164440    1.315347   -0.073718
     31          1           0       -3.046726   -2.977003    0.060232
     32          8           0        1.587896    2.109757   -0.086194
     33          8           0        3.765548    1.632473    0.160759
     34          6           0        2.800837    2.430653    0.034584
     35          6           0        3.153068    3.925638    0.017844
     36          6           0        1.953625    4.862874   -0.027695
     37          1           0        3.806460    4.087894   -0.849210
     38          1           0        3.774328    4.122702    0.899803
     39          1           0        1.343746    4.672032   -0.915517
     40          1           0        2.273244    5.911939   -0.045694
     41          1           0        1.308681    4.715685    0.844244
 ---------------------------------------------------------------------

 SCF Done:  E(RM062X) =  -1254.00553034     A.U. after    1 cycles

 The electronic state is 1-A.
 Alpha  occ. eigenvalues --  -25.27816 -25.27462 -25.27440 -19.67742 -19.53866
 Alpha  occ. eigenvalues --  -19.52288 -19.51819 -14.71273 -14.69719 -10.83037
 Alpha  occ. eigenvalues --  -10.60783 -10.57609 -10.56897 -10.54545 -10.51658
 Alpha  occ. eigenvalues --  -10.51524 -10.51152 -10.50134 -10.49858 -10.49158
 Alpha  occ. eigenvalues --  -10.48983 -10.47750 -10.47561  -1.45350  -1.35450
 Alpha  occ. eigenvalues --   -1.34958  -1.20134  -1.09917  -1.08367  -0.98750
 Alpha  occ. eigenvalues --   -0.98075  -0.95207  -0.91028  -0.83202  -0.81683
 Alpha  occ. eigenvalues --   -0.80219  -0.79807  -0.76532  -0.72481  -0.69500
 Alpha  occ. eigenvalues --   -0.68655  -0.67917  -0.66180  -0.64880  -0.63311
 Alpha  occ. eigenvalues --   -0.61742  -0.59533  -0.55993  -0.55372  -0.55202
 Alpha  occ. eigenvalues --   -0.55190  -0.52963  -0.51180  -0.51033  -0.50845
 Alpha  occ. eigenvalues --   -0.49555  -0.48811  -0.48647  -0.47758  -0.46397
 Alpha  occ. eigenvalues --   -0.46101  -0.45860  -0.45572  -0.45024  -0.44537
 Alpha  occ. eigenvalues --   -0.44013  -0.43280  -0.42116  -0.41051  -0.40853
 Alpha  occ. eigenvalues --   -0.40276  -0.39129  -0.38333  -0.37866  -0.36974
 Alpha  occ. eigenvalues --   -0.35946  -0.35566  -0.34622  -0.34208  -0.33639
 Alpha  occ. eigenvalues --   -0.30696  -0.27465  -0.26449  -0.25186  -0.24497
 Alpha  occ. eigenvalues --   -0.24431  -0.24000  -0.19767
 Alpha virt. eigenvalues --    0.05828   0.06598   0.06914   0.07162   0.07389
 Alpha virt. eigenvalues --    0.07525   0.07943   0.08558   0.08983   0.09153
 Alpha virt. eigenvalues --    0.09295   0.09731   0.10265   0.10887   0.10961

 Mulliken charges:
               1
     1  C   -0.218960
     2  C    0.444267
     3  C   -0.774451
     4  C    0.027265
     5  C    0.539143
     6  C   -0.941542
     7  N   -0.685275
     8  C    0.845485
     9  N   -0.791047
    10  O   -0.636676
    11  C   -0.191902
    12  C   -0.343111
    13  C   -0.806675
    14  H    0.273962
    15  H    0.271423
    16  H    0.516156
    17  H    0.525749
    18  H    0.215111
    19  H    0.212943
    20  H    0.238915
    21  H    0.233173
    22  H    0.207499
    23  H    0.207309
    24  H    0.206559
    25  O   -0.436203
    26  C    1.247420
    27  F   -0.337578
    28  F   -0.333398
    29  F   -0.331634
    30  H    0.231972
    31  H    0.226094
    32  O   -0.692863
    33  O   -0.655206
    34  C    0.680408
    35  C   -0.501625
    36  C   -0.723489
    37  H    0.216443
    38  H    0.215364
    39  H    0.218969
    40  H    0.184822
    41  H    0.215186
 Sum of Mulliken charges =  -1.00000

 Dipole moment (field-independent basis, Debye):
    X=             -4.1434    Y=             -0.1372    Z=             -0.0895  Tot=              4.1466
 Quadrupole moment (field-independent basis, Debye-Ang):
   XX=           -191.3075   YY=           -162.0157   ZZ=           -141.6121
   XY=             -5.8140   XZ=             -1.0726   YZ=             -0.4096

  Exact polarizability: 310.360  -7.288 236.376   1.390  -1.826 144.662
 Approx polarizability: 281.248  -1.901 246.509   1.797  -2.190 169.478

                      1                      2                      3
                      A                      A                      A
 Frequencies --     20.6268                26.2913                32.2386
 Red. masses --      6.1304                 4.9673                 6.5825
 Frc consts  --      0.0015                 0.0020                 0.0040
 IR Inten    --      0.5476                 0.1898                 0.3260

                      4                      5                      6
                      A                      A                      A
 Frequencies --     42.3898                43.6192                45.6723
 Red. masses --      4.2400                 4.7669                 2.6926
 Frc consts  --      0.0045                 0.0053                 0.0033
 IR Inten    --      0.9321                 1.6031                 0.0724

                      7                      8                      9
                      A                      A                      A
 Frequencies --     63.6898                65.5535                73.1841
 Red. masses --      4.2096                 4.1485                 2.5878
 Frc consts  --      0.0101                 0.0105                 0.0082
 IR Inten    --      3.2604                 1.3347                 1.2369

                     10                     11                     12
                      A                      A                      A
 Frequencies --     76.0458                81.1977                96.6389
 Red. masses --      4.5227                 3.7955                 7.0192
 Frc consts  --      0.0154                 0.0147                 0.0386
 IR Inten    --      6.9522                 0.6352                 0.6094

                     13                     14                     15
                      A                      A                      A
 Frequencies --    117.9628               121.0854               156.1546
 Red. masses --      6.2537                 8.7947                 3.9735
 Frc consts  --      0.0513                 0.0760                 0.0571
 IR Inten    --      7.4034                 8.9401                 4.3149

                     16                     17                     18
                      A                      A                      A
 Frequencies --    162.5978               178.4468               186.6177
 Red. masses --      7.5303                 5.5130                 4.6826
 Frc consts  --      0.1173                 0.1034                 0.0961
 IR Inten    --     20.9293                 8.9055                 5.3711

                     19                     20                     21
                      A                      A                      A
 Frequencies --    238.0145               241.0652               241.5026
 Red. masses --      4.9781                 1.1002                 1.1285
 Frc consts  --      0.1662                 0.0377                 0.0388
 IR Inten    --      3.7785                 0.3809                 0.0810

                     22                     23                     24
                      A                      A                      A
 Frequencies --    298.8653               310.0189               345.6538
 Red. masses --      5.5513                 4.6891                 6.1635
 Frc consts  --      0.2921                 0.2655                 0.4339
 IR Inten    --      6.3448                12.7106                 2.2860

                     25                     26                     27
                      A                      A                      A
 Frequencies --    357.4981               361.6705               394.8332
 Red. masses --      7.4946                 4.8401                 6.4782
 Frc consts  --      0.5643                 0.3730                 0.5950
 IR Inten    --      0.2921                37.4952                 8.1367

                     28                     29                     30
                      A                      A                      A
 Frequencies --    429.7190               448.0232               479.3267
 Red. masses --      3.1431                14.5524                 5.2195
 Frc consts  --      0.3420                 1.7210                 0.7065
 IR Inten    --      0.0673                 0.1068                 5.0211

                     31                     32                     33
                      A                      A                      A
 Frequencies --    517.5407               524.7692               536.6606
 Red. masses --      5.4962                 2.5299                 9.1656
 Frc consts  --      0.8674                 0.4105                 1.5553
 IR Inten    --     21.0828                17.4751                 9.1760

                     34                     35                     36
                      A                      A                      A
 Frequencies --    586.4614               620.7478               627.0009
 Red. masses --      2.0185                17.0059                 7.7040
 Frc consts  --      0.4090                 3.8608                 1.7844
 IR Inten    --      2.0743                 2.7292                11.1719

                     37                     38                     39
                      A                      A                      A
 Frequencies --    644.7747               658.7744               703.4085
 Red. masses --      7.4902                 4.5309                11.9839
 Frc consts  --      1.8347                 1.1585                 3.4935
 IR Inten    --      9.7908                41.2263                 2.6489

                     40                     41                     42
                      A                      A                      A
 Frequencies --    713.0075               753.4375               762.1949
 Red. masses --      3.9669                 1.3223                 1.7333
 Frc consts  --      1.1882                 0.4422                 0.5933
 IR Inten    --      0.1872                23.2562                31.0357

                     43                     44                     45
                      A                      A                      A
 Frequencies --    781.2290               800.1965               806.0694
 Red. masses --      6.7063                 1.6155                 8.4609
 Frc consts  --      2.4115                 0.6095                 3.2390
 IR Inten    --      3.3122                 3.4466                23.3287

                     46                     47                     48
                      A                      A                      A
 Frequencies --    826.4006               838.0711               860.7885
 Red. masses --      1.4385                 1.2578                 1.6268
 Frc consts  --      0.5788                 0.5205                 0.7102
 IR Inten    --      7.1223                 3.1768                70.9404

                     49                     50                     51
                      A                      A                      A
 Frequencies --    876.3496               891.5951               903.4767
 Red. masses --      5.2449                 3.8850                 1.1592
 Frc consts  --      2.3732                 1.8196                 0.5575
 IR Inten    --     52.8746                31.5034                14.1231

                     52                     53                     54
                      A                      A                      A
 Frequencies --    929.5724               932.9223               957.8098
 Red. masses --      1.5984                 1.1400                11.5168
 Frc consts  --      0.8138                 0.5846                 6.2250
 IR Inten    --     15.4790                81.6895                24.4942

                     55                     56                     57
                      A                      A                      A
 Frequencies --    974.7206               995.2506              1024.3990
 Red. masses --      1.3066                 1.3075                 1.6546
 Frc consts  --      0.7314                 0.7631                 1.0230
 IR Inten    --      9.1097                 4.3258                 4.9603

                     58                     59                     60
                      A                      A                      A
 Frequencies --   1036.2486              1053.8359              1085.7015
 Red. masses --      2.7991                 3.8935                 2.5865
 Frc consts  --      1.7709                 2.5476                 1.7963
 IR Inten    --      0.6064                20.2059                 5.0272

                     61                     62                     63
                      A                      A                      A
 Frequencies --   1107.9828              1114.4637              1143.3691
 Red. masses --      1.7746                 2.3133                 1.2799
 Frc consts  --      1.2836                 1.6929                 0.9859
 IR Inten    --      1.2639                 6.1276                14.1754

                     64                     65                     66
                      A                      A                      A
 Frequencies --   1159.8601              1182.4123              1192.5465
 Red. masses --      2.3186                 1.6064                 4.0651
 Frc consts  --      1.8378                 1.3232                 3.4062
 IR Inten    --      6.2771                 0.6686                 5.2090

                     67                     68                     69
                      A                      A                      A
 Frequencies --   1199.4670              1213.7100              1226.8505
 Red. masses --     12.7412                 1.2938                 2.7547
 Frc consts  --     10.8003                 1.1229                 2.4429
 IR Inten    --    411.5016                 2.9686               200.5930

                     70                     71                     72
                      A                      A                      A
 Frequencies --   1258.4846              1276.0082              1287.0336
 Red. masses --      7.9696                 1.1951                 1.1864
 Frc consts  --      7.4367                 1.1465                 1.1579
 IR Inten    --    292.7685                 0.0792                 0.1110

                     73                     74                     75
                      A                      A                      A
 Frequencies --   1298.2686              1320.6210              1327.3215
 Red. masses --      2.7566                 1.8692                 1.1250
 Frc consts  --      2.7375                 1.9207                 1.1678
 IR Inten    --    849.7313                 1.4488                 3.6558

                     76                     77                     78
                      A                      A                      A
 Frequencies --   1337.4205              1339.0763              1352.8089
 Red. masses --      1.6659                 1.4656                 9.7442
 Frc consts  --      1.7556                 1.5484                10.5068
 IR Inten    --     25.6540                66.4063              1394.7273

                     79                     80                     81
                      A                      A                      A
 Frequencies --   1365.2837              1382.6746              1425.0884
 Red. masses --      2.2201                 3.2791                 1.3381
 Frc consts  --      2.4381                 3.6936                 1.6011
 IR Inten    --     73.7541               148.4118                 8.4369

                     82                     83                     84
                      A                      A                      A
 Frequencies --   1427.9584              1434.6754              1471.5434
 Red. masses --      1.3221                 1.6399                 3.3238
 Frc consts  --      1.5884                 1.9887                 4.2407
 IR Inten    --     26.5540                 7.2129                16.6678

                     85                     86                     87
                      A                      A                      A
 Frequencies --   1473.0121              1486.1895              1505.1604
 Red. masses --      2.8811                 1.3559                 1.0715
 Frc consts  --      3.6832                 1.7645                 1.4303
 IR Inten    --    347.9073                59.6230                 8.8029

                     88                     89                     90
                      A                      A                      A
 Frequencies --   1512.7564              1519.4692              1524.3485
 Red. masses --      1.0405                 1.0404                 1.0705
 Frc consts  --      1.4029                 1.4152                 1.4655
 IR Inten    --      7.4059                 8.5949                 8.3342

                     91                     92                     93
                      A                      A                      A
 Frequencies --   1525.4925              1541.4522              1565.2546
 Red. masses --      1.0947                 1.0844                 2.6956
 Frc consts  --      1.5010                 1.5181                 3.8911
 IR Inten    --     51.6154                18.5326               525.1935

                     94                     95                     96
                      A                      A                      A
 Frequencies --   1625.1676              1642.8970              1682.1308
 Red. masses --      2.5551                 2.2654                 4.4596
 Frc consts  --      3.9761                 3.6026                 7.4347
 IR Inten    --     81.0761                87.3138               629.5833

                     97                     98                     99
                      A                      A                      A
 Frequencies --   1694.1634              1708.3352              1773.5480
 Red. masses --      6.0262                 3.5901                 2.8544
 Frc consts  --     10.1907                 6.1730                 5.2899
 IR Inten    --     93.8592               856.4757               390.9323

                    100                    101                    102
                      A                      A                      A
 Frequencies --   3041.5845              3067.9240              3070.4255
 Red. masses --      1.0607                 1.0372                 1.1009
 Frc consts  --      5.7816                 5.7518                 6.1151
 IR Inten    --     91.3046                47.4292                43.2003

                    103                    104                    105
                      A                      A                      A
 Frequencies --   3071.2445              3077.6114              3082.2122
 Red. masses --      1.0538                 1.0493                 1.0607
 Frc consts  --      5.8563                 5.8557                 5.9369
 IR Inten    --     50.1339                73.7223                25.6996

                    106                    107                    108
                      A                      A                      A
 Frequencies --   3110.1741              3116.6880              3121.2569
 Red. masses --      1.1006                 1.1033                 1.0941
 Frc consts  --      6.2727                 6.3142                 6.2799
 IR Inten    --     21.9342                 2.4016               748.9255

                    109                    110                    111
                      A                      A                      A
 Frequencies --   3139.5849              3142.3409              3143.4202
 Red. masses --      1.1038                 1.0969                 1.1012
 Frc consts  --      6.4104                 6.3813                 6.4112
 IR Inten    --     79.1678                28.7093                44.1967

                    112                    113                    114
                      A                      A                      A
 Frequencies --   3164.9368              3216.9562              3226.9710
 Red. masses --      1.1019                 1.0908                 1.0918
 Frc consts  --      6.5031                 6.6513                 6.6986
 IR Inten    --     42.1009              1729.9479               143.0541

                    115                    116                    117
                      A                      A                      A
 Frequencies --   3233.7811              3260.3154              3293.4477
 Red. masses --      1.0918                 1.0932                 1.0926
 Frc consts  --      6.7269                 6.8464                 6.9822
 IR Inten    --      4.0684                 2.8061                 8.7251

 - Thermochemistry -
 -------------------
 Temperature   298.150 Kelvin.  Pressure   1.00000 Atm.
 Atom     1 has atomic number  6 and mass  12.00000

 Molecular mass:   335.12187 amu.
 Principal axes and moments of inertia in atomic units:
                           1         2         3
     Eigenvalues --  4810.01488********************
           X            1.00000  -0.00299  -0.00009
           Y            0.00299   1.00000  -0.00062
           Z            0.00009   0.00062   1.00000
 This molecule is an asymmetric top.
 Rotational symmetry number  1.
 Warning -- assumption of classical behavior for rotation
           may cause significant error
 Rotational temperatures (Kelvin)      0.01801     0.00464     0.00375
 Rotational constants (GHZ):           0.37520     0.09662     0.07809
 Zero-point vibrational energy     844353.0 (Joules/Mol)
                                  201.80521 (Kcal/Mol)
 Warning -- explicit consideration of  35 degrees of freedom as
           vibrations may cause significant error
 Vibrational temperatures:     29.68    37.83    46.38    60.99    62.76
          (Kelvin)             65.71    91.64    94.32   105.30   109.41
                              116.83   139.04   169.72   174.21   224.67
                              233.94   256.74   268.50   342.45   346.84
                              347.47   430.00   446.05   497.32   514.36
                              520.36   568.08   618.27   644.60   689.64
                              744.62   755.02   772.13   843.79   893.12
                              902.11   927.69   947.83  1012.05  1025.86
                             1084.03  1096.63  1124.01  1151.30  1159.75
                             1189.00  1205.80  1238.48  1260.87  1282.80
                             1299.90  1337.45  1342.27  1378.07  1402.40
                             1431.94  1473.88  1490.93  1516.23  1562.08
                             1594.14  1603.46  1645.05  1668.78  1701.23
                             1715.81  1725.76  1746.26  1765.16  1810.68
                             1835.89  1851.75  1867.92  1900.08  1909.72
                             1924.25  1926.63  1946.39  1964.34  1989.36
                             2050.38  2054.51  2064.18  2117.22  2119.33
                             2138.29  2165.59  2176.52  2186.17  2193.19
                             2194.84  2217.80  2252.05  2338.25  2363.76
                             2420.21  2437.52  2457.91  2551.74  4376.16
                             4414.05  4417.65  4418.83  4427.99  4434.61
                             4474.84  4484.21  4490.79  4517.16  4521.12
                             4522.67  4553.63  4628.48  4642.89  4652.68
                             4690.86  4738.53

 Zero-point correction=                           0.321597 (Hartree/Particle)
 Thermal correction to Energy=                    0.345708
 Thermal correction to Enthalpy=                  0.346652
 Thermal correction to Gibbs Free Energy=         0.262972
 Sum of electronic and zero-point Energies=          -1253.683933
 Sum of electronic and thermal Energies=             -1253.659823
 Sum of electronic and thermal Enthalpies=           -1253.658879
 Sum of electronic and thermal Free Energies=        -1253.742558

                     E (Thermal)             CV                S
                      KCal/Mol        Cal/Mol-Kelvin    Cal/Mol-Kelvin
 Total                  216.935             84.954            176.118
 Electronic               0.000              0.000              0.000
 Translational            0.889              2.981             43.323
 Rotational               0.889              2.981             35.983
 Vibrational            215.157             78.992             96.812
 Vibration     1          0.593              1.986              6.573
 Vibration     2          0.593              1.985              6.091
 Vibration     3          0.594              1.983              5.687
 Vibration     4          0.595              1.980              5.144
 Vibration     5          0.595              1.980              5.088
 Vibration     6          0.595              1.979              4.997
 Vibration     7          0.597              1.972              4.339
 Vibration     8          0.597              1.971              4.283
 Vibration     9          0.599              1.967              4.066
 Vibration    10          0.599              1.965              3.990
 Vibration    11          0.600              1.962              3.862
 Vibration    12          0.603              1.952              3.521
 Vibration    13          0.608              1.934              3.133
 Vibration    14          0.609              1.932              3.083
 Vibration    15          0.620              1.896              2.596
 Vibration    16          0.623              1.888              2.519
 Vibration    17          0.629              1.869              2.345
 Vibration    18          0.632              1.858              2.261
 Vibration    19          0.656              1.782              1.818
 Vibration    20          0.658              1.777              1.795
 Vibration    21          0.658              1.777              1.792
 Vibration    22          0.692              1.676              1.423
 Vibration    23          0.699              1.655              1.362
 Vibration    24          0.724              1.584              1.186
 Vibration    25          0.733              1.560              1.133
 Vibration    26          0.736              1.551              1.115
 Vibration    27          0.762              1.481              0.982
 Vibration    28          0.791              1.406              0.860
 Vibration    29          0.807              1.365              0.802
 Vibration    30          0.836              1.296              0.712
 Vibration    31          0.873              1.211              0.616
 Vibration    32          0.880              1.195              0.599
 Vibration    33          0.892              1.169              0.573
 Vibration    34          0.944              1.061              0.474
 Vibration    35          0.981              0.988              0.415

 Normal termination of Gaussian 09 at Tue Feb 19 14:18:20 2019.
