 Gaussian 09, Revision E.01,

 ----------------------------------------------------------------------
 # M062X/Gen 6D NoSymm SCF=Tight INT(grid=ultrafine) OPT IOP(2/17=4) Fr
 eq=Noraman maxdisk=2147483648
 ----------------------------------------------------------------------

 ------------------------
 aryl_urea_OCF3.M062X.opt
 ------------------------
 Symbolic Z-matrix:
 Charge =  0 Multiplicity = 1

 SCF Done:  E(RM062X) =  -986.140678135     A.U. after   16 cycles
 SCF Done:  E(RM062X) =  -986.158763356     A.U. after   14 cycles
 SCF Done:  E(RM062X) =  -986.161967789     A.U. after   14 cycles
 SCF Done:  E(RM062X) =  -986.163171662     A.U. after   13 cycles
 SCF Done:  E(RM062X) =  -986.163571960     A.U. after   12 cycles
 SCF Done:  E(RM062X) =  -986.163678403     A.U. after   12 cycles
 SCF Done:  E(RM062X) =  -986.163746464     A.U. after   12 cycles
 SCF Done:  E(RM062X) =  -986.163785023     A.U. after   12 cycles
 SCF Done:  E(RM062X) =  -986.163808956     A.U. after   12 cycles
 SCF Done:  E(RM062X) =  -986.163822050     A.U. after   12 cycles
 Optimization completed.
    -- Stationary point found.
 Normal termination of Gaussian 09 at Thu Jul 12 17:45:36 2018.

 ----------------------------------------------------------------------
 #N Geom=AllCheck Guess=TCheck SCRF=Check Test GenChk RM062X/ChkBas Fre
 q
 ----------------------------------------------------------------------

 Structure from the checkpoint file:  "aryl_urea_OCF3.M062X.opt.chk"
 ------------------------
 aryl_urea_OCF3.M062X.opt
 ------------------------
 Charge =  0 Multiplicity = 1

 Normal termination of Gaussian 09 at Thu Jul 12 18:27:29 2018.
 Gaussian 09:  ES64L-G09RevE.01 30-Nov-2015

 ----------------------------------------------------------------------
 # M062X/Gen 6D SCF=Tight INT(grid=ultrafine) OPT IOP(2/17=4) Freq=Nora
 man geom=check guess=read IOP(2/17=4) maxdisk=2147483648
 ----------------------------------------------------------------------

 ------------------------
 aryl_urea_OCF3.M062X.opt
 ------------------------
 Structure from the checkpoint file:  "aryl_urea_OCF3.M062X.opt.chk"
 Charge =  0 Multiplicity = 1

 SCF Done:  E(RM062X) =  -986.164462760     A.U. after   10 cycles
 SCF Done:  E(RM062X) =  -986.164463007     A.U. after    9 cycles
 SCF Done:  E(RM062X) =  -986.164463226     A.U. after   10 cycles
 SCF Done:  E(RM062X) =  -986.164463413     A.U. after    9 cycles
 SCF Done:  E(RM062X) =  -986.164463644     A.U. after   10 cycles
 SCF Done:  E(RM062X) =  -986.164463880     A.U. after    9 cycles
 SCF Done:  E(RM062X) =  -986.164464058     A.U. after    9 cycles
 SCF Done:  E(RM062X) =  -986.164464201     A.U. after   10 cycles
 SCF Done:  E(RM062X) =  -986.164464303     A.U. after    9 cycles
 Optimization completed.
    -- Stationary point found.
 Normal termination of Gaussian 09 at Thu Jul 12 18:58:07 2018.

 ----------------------------------------------------------------------
 #N Geom=AllCheck Guess=TCheck SCRF=Check Test GenChk RM062X/ChkBas Fre
 q
 ----------------------------------------------------------------------

 Structure from the checkpoint file:  "aryl_urea_OCF3.M062X.opt.chk"
 ------------------------
 aryl_urea_OCF3.M062X.opt
 ------------------------
 Charge =  0 Multiplicity = 1

                         Standard orientation:
 ---------------------------------------------------------------------
 Center     Atomic      Atomic             Coordinates (Angstroms)
 Number     Number       Type             X           Y           Z
 ---------------------------------------------------------------------
      1          6           0       -2.469714    0.401376   -0.028679
      2          6           0       -2.076664   -0.930046    0.024326
      3          6           0       -0.716951   -1.224504    0.005086
      4          6           0        0.250298   -0.217232   -0.067585
      5          6           0       -0.166799    1.119714   -0.120396
      6          6           0       -1.524431    1.415981   -0.100159
      7          7           0        1.597737   -0.615652   -0.110545
      8          6           0        2.716242    0.193190    0.014878
      9          7           0        3.903232   -0.505149   -0.045239
     10          8           0        2.670508    1.399317    0.187452
     11          6           0        5.152369    0.245454   -0.076001
     12          6           0        6.342003   -0.691534    0.088372
     13          6           0        7.664316    0.071946    0.065694
     14          1           0       -0.408973   -2.266717    0.046746
     15          1           0        0.564807    1.913856   -0.167826
     16          1           0        1.751301   -1.613283   -0.046974
     17          1           0        3.903057   -1.379999   -0.555861
     18          1           0        5.118358    0.970552    0.741534
     19          1           0        5.240745    0.818975   -1.010061
     20          1           0        6.336590   -1.438273   -0.718074
     21          1           0        6.235548   -1.240153    1.031685
     22          1           0        7.792736    0.609229   -0.880011
     23          1           0        8.514223   -0.605687    0.184910
     24          1           0        7.704353    0.807271    0.876191
     25          8           0       -3.795432    0.841432   -0.013968
     26          6           0       -4.804645   -0.041975    0.030264
     27          9           0       -5.944355    0.637479    0.020842
     28          9           0       -4.807849   -0.880399   -1.019055
     29          9           0       -4.780780   -0.803668    1.136348
     30          1           0       -2.796402   -1.737350    0.081491
     31          1           0       -1.863020    2.446250   -0.139136
 ---------------------------------------------------------------------

 SCF Done:  E(RM062X) =  -986.164464303     A.U. after    1 cycles

 The electronic state is 1-A.
 Alpha  occ. eigenvalues --  -25.31380 -25.31224 -25.31208 -19.72119 -19.62164
 Alpha  occ. eigenvalues --  -14.81325 -14.79589 -10.86911 -10.69475 -10.63400
 Alpha  occ. eigenvalues --  -10.61487 -10.58898 -10.57515 -10.57398 -10.56806
 Alpha  occ. eigenvalues --  -10.56222 -10.56173 -10.54913  -1.49219  -1.39278
 Alpha  occ. eigenvalues --   -1.38787  -1.24496  -1.18848  -1.07040  -1.03902
 Alpha  occ. eigenvalues --   -0.97445  -0.89887  -0.87795  -0.86435  -0.81861
 Alpha  occ. eigenvalues --   -0.78672  -0.75286  -0.73563  -0.71705  -0.70586
 Alpha  occ. eigenvalues --   -0.70073  -0.69530  -0.66440  -0.64226  -0.62321
 Alpha  occ. eigenvalues --   -0.59658  -0.58904  -0.57672  -0.56795  -0.55611
 Alpha  occ. eigenvalues --   -0.54888  -0.54719  -0.54133  -0.53151  -0.52410
 Alpha  occ. eigenvalues --   -0.52310  -0.51471  -0.50347  -0.50114  -0.48632
 Alpha  occ. eigenvalues --   -0.48186  -0.47193  -0.47039  -0.44517  -0.43688
 Alpha  occ. eigenvalues --   -0.42368  -0.41708  -0.41093  -0.37702  -0.35639
 Alpha  occ. eigenvalues --   -0.33224  -0.32317  -0.27377
 Alpha virt. eigenvalues --   -0.00750   0.00551   0.01554   0.01924   0.02506
 Alpha virt. eigenvalues --    0.03020   0.03470   0.03773   0.04444   0.04761
 Alpha virt. eigenvalues --    0.05331   0.05828   0.06376   0.06686   0.06781

 Mulliken charges:
               1
     1  C   -0.324404
     2  C    0.475430
     3  C   -1.278120
     4  C    0.119531
     5  C    0.855739
     6  C   -0.688302
     7  N   -0.665329
     8  C    0.751284
     9  N   -0.571903
    10  O   -0.571448
    11  C   -0.188839
    12  C   -0.313497
    13  C   -0.714591
    14  H    0.196439
    15  H    0.272978
    16  H    0.408362
    17  H    0.382447
    18  H    0.242020
    19  H    0.214403
    20  H    0.201305
    21  H    0.227064
    22  H    0.213983
    23  H    0.214177
    24  H    0.215516
    25  O   -0.424780
    26  C    1.254930
    27  F   -0.318687
    28  F   -0.326153
    29  F   -0.325534
    30  H    0.233438
    31  H    0.232541
 Sum of Mulliken charges =  -0.00000

 Dipole moment (field-independent basis, Debye):
    X=              4.2873    Y=             -3.6745    Z=             -0.9057  Tot=              5.7186
 Quadrupole moment (field-independent basis, Debye-Ang):
   XX=           -101.1969   YY=            -99.9445   ZZ=           -108.3300
   XY=             -9.0182   XZ=             -3.1879   YZ=              0.2391

  Exact polarizability: 224.572  -1.617 141.770  -0.978  -0.616  96.636
 Approx polarizability: 210.965  -2.501 194.366  -1.364  -0.138 124.401

                      1                      2                      3
                      A                      A                      A
 Frequencies --     11.6293                20.2105                26.3089
 Red. masses --      5.2284                 3.0935                 5.3677
 Frc consts  --      0.0004                 0.0007                 0.0022
 IR Inten    --      1.6100                 1.3672                 0.5106

                      4                      5                      6
                      A                      A                      A
 Frequencies --     54.5524                58.0617                69.5968
 Red. masses --      4.1411                 4.5744                 2.8736
 Frc consts  --      0.0073                 0.0091                 0.0082
 IR Inten    --      1.1224                 4.5149                 1.5974

                      7                      8                      9
                      A                      A                      A
 Frequencies --     91.1193               119.6520               161.4464
 Red. masses --      6.5628                 7.1563                 4.8232
 Frc consts  --      0.0321                 0.0604                 0.0741
 IR Inten    --      0.0175                 3.6628                 1.6420

                     10                     11                     12
                      A                      A                      A
 Frequencies --    163.3549               189.4978               229.3550
 Red. masses --      6.5777                 2.9769                 4.6895
 Frc consts  --      0.1034                 0.0630                 0.1453
 IR Inten    --      2.0822                 0.7990                 5.4225

                     13                     14                     15
                      A                      A                      A
 Frequencies --    237.1532               298.1772               342.6843
 Red. masses --      1.1334                 6.4574                 4.2323
 Frc consts  --      0.0376                 0.3383                 0.2928
 IR Inten    --      0.0948                 1.1645                31.7135

                     16                     17                     18
                      A                      A                      A
 Frequencies --    351.8487               355.2622               385.3717
 Red. masses --      4.2727                 3.4584                 2.0055
 Frc consts  --      0.3116                 0.2572                 0.1755
 IR Inten    --      4.3129                41.9379                28.9265

                     19                     20                     21
                      A                      A                      A
 Frequencies --    394.1669               421.7651               448.0020
 Red. masses --      6.2117                 3.0757                13.1685
 Frc consts  --      0.5686                 0.3224                 1.5572
 IR Inten    --      4.6623                 1.3168                 1.2259

                     22                     23                     24
                      A                      A                      A
 Frequencies --    476.4864               502.0923               527.3618
 Red. masses --      2.5138                 1.6582                 2.4635
 Frc consts  --      0.3363                 0.2463                 0.4037
 IR Inten    --     28.1051                92.6757                30.2773

                     25                     26                     27
                      A                      A                      A
 Frequencies --    542.2901               620.6168               628.4543
 Red. masses --      6.6629                16.5118                 7.0270
 Frc consts  --      1.1545                 3.7471                 1.6352
 IR Inten    --     14.9433                 1.7867                 6.3725

                     28                     29                     30
                      A                      A                      A
 Frequencies --    648.4249               708.0839               709.2905
 Red. masses --      7.2720                 4.3247                 9.3348
 Frc consts  --      1.8015                 1.2775                 2.7670
 IR Inten    --      3.7996                 0.7391                 7.0031

                     31                     32                     33
                      A                      A                      A
 Frequencies --    752.6261               766.3449               788.7012
 Red. masses --      2.0543                 1.8180                 5.2066
 Frc consts  --      0.6856                 0.6291                 1.9082
 IR Inten    --     11.1794                 2.7729                 6.8223

                     34                     35                     36
                      A                      A                      A
 Frequencies --    818.0655               830.0766               866.4813
 Red. masses --      7.5992                 1.3628                 1.5232
 Frc consts  --      2.9964                 0.5533                 0.6738
 IR Inten    --     13.4954                14.8732                55.4298

                     37                     38                     39
                      A                      A                      A
 Frequencies --    880.6208               902.4290               933.2448
 Red. masses --      5.4293                 1.1914                 1.6947
 Frc consts  --      2.4807                 0.5717                 0.8697
 IR Inten    --      5.7001                 2.6006                 2.3941

                     40                     41                     42
                      A                      A                      A
 Frequencies --    955.5664               961.8343               996.3618
 Red. masses --      1.3303                11.1929                 1.3133
 Frc consts  --      0.7157                 6.1009                 0.7681
 IR Inten    --      0.5656                16.7389                 0.1071

                     43                     44                     45
                      A                      A                      A
 Frequencies --   1038.5260              1048.1664              1080.9359
 Red. masses --      2.9907                 3.5215                 2.6075
 Frc consts  --      1.9005                 2.2795                 1.7951
 IR Inten    --      3.2957                 1.4474                 2.4238

                     46                     47                     48
                      A                      A                      A
 Frequencies --   1148.8827              1158.7063              1165.4330
 Red. masses --      2.4390                 1.2986                 2.5812
 Frc consts  --      1.8967                 1.0272                 2.0656
 IR Inten    --      6.9953                12.3260                 2.2795

                     49                     50                     51
                      A                      A                      A
 Frequencies --   1181.2204              1220.2628              1229.7494
 Red. masses --      1.7767                 1.1430                12.6992
 Frc consts  --      1.4606                 1.0028                11.3151
 IR Inten    --      0.6357                26.6167               354.4530

                     52                     53                     54
                      A                      A                      A
 Frequencies --   1237.4915              1268.0391              1279.6704
 Red. masses --      1.8068                 2.3161                 3.9535
 Frc consts  --      1.6302                 2.1941                 3.8144
 IR Inten    --    478.7100                56.9144               251.6727

                     55                     56                     57
                      A                      A                      A
 Frequencies --   1286.2416              1307.5832              1327.6690
 Red. masses --      1.6073                 4.5154                 1.1586
 Frc consts  --      1.5667                 4.5487                 1.2033
 IR Inten    --     90.4758                47.7649                 4.9726

                     58                     59                     60
                      A                      A                      A
 Frequencies --   1341.6996              1345.5226              1354.4289
 Red. masses --      1.5971                 2.2230                 2.2631
 Frc consts  --      1.6939                 2.3712                 2.4461
 IR Inten    --    354.3567                50.3407               156.3711

                     61                     62                     63
                      A                      A                      A
 Frequencies --   1363.4046              1426.9330              1437.6791
 Red. masses --      4.2135                 1.4930                 1.3328
 Frc consts  --      4.6147                 1.7911                 1.6231
 IR Inten    --    795.0358                 0.2594                 2.3342

                     64                     65                     66
                      A                      A                      A
 Frequencies --   1472.2266              1516.1711              1524.7349
 Red. masses --      2.9799                 1.0598                 1.0465
 Frc consts  --      3.8054                 1.4354                 1.4334
 IR Inten    --     18.3416                 6.7743                16.2745

                     67                     68                     69
                      A                      A                      A
 Frequencies --   1527.5119              1535.9541              1543.4368
 Red. masses --      1.0747                 1.3916                 1.2579
 Frc consts  --      1.4775                 1.9343                 1.7655
 IR Inten    --      2.5670               106.8461               190.1111

                     70                     71                     72
                      A                      A                      A
 Frequencies --   1575.0440              1589.9614              1683.2407
 Red. masses --      2.6714                 2.4296                 5.9825
 Frc consts  --      3.9046                 3.6188                 9.9868
 IR Inten    --     56.7773               916.5918                24.8472

                     73                     74                     75
                      A                      A                      A
 Frequencies --   1706.8818              1819.5318              3055.0178
 Red. masses --      6.4561                 8.7436                 1.0692
 Frc consts  --     11.0822                17.0554                 5.8792
 IR Inten    --     12.6641               262.2069                24.4623

                     76                     77                     78
                      A                      A                      A
 Frequencies --   3056.8732              3079.7142              3107.4682
 Red. masses --      1.0679                 1.0363                 1.0954
 Frc consts  --      5.8792                 5.7912                 6.2322
 IR Inten    --     38.2989                30.0740                15.7298

                     79                     80                     81
                      A                      A                      A
 Frequencies --   3144.9447              3152.1966              3159.6570
 Red. masses --      1.0968                 1.1013                 1.1019
 Frc consts  --      6.3916                 6.4473                 6.4815
 IR Inten    --      1.0809                49.4545                28.4105

                     82                     83                     84
                      A                      A                      A
 Frequencies --   3207.5924              3245.6081              3270.7634
 Red. masses --      1.0906                 1.0921                 1.0932
 Frc consts  --      6.6110                 6.7778                 6.8907
 IR Inten    --     12.9564                 1.6705                 0.1956

                     85                     86                     87
                      A                      A                      A
 Frequencies --   3300.4888              3619.7026              3639.8682
 Red. masses --      1.0930                 1.0771                 1.0769
 Frc consts  --      7.0150                 8.3147                 8.4064
 IR Inten    --      9.0186                20.5061                26.5619

 - Thermochemistry -
 -------------------
 Temperature   298.150 Kelvin.  Pressure   1.00000 Atm.
 Atom     1 has atomic number  6 and mass  12.00000

 Molecular mass:   262.09291 amu.
 Principal axes and moments of inertia in atomic units:
                           1         2         3
     Eigenvalues --   868.03414********************
           X            1.00000  -0.00284   0.00001
           Y            0.00284   0.99999  -0.00248
           Z           -0.00000   0.00248   1.00000
 This molecule is an asymmetric top.
 Rotational symmetry number  1.
 Warning -- assumption of classical behavior for rotation
           may cause significant error
 Rotational temperatures (Kelvin)      0.09978     0.00531     0.00515
 Rotational constants (GHZ):           2.07911     0.11074     0.10741
 Zero-point vibrational energy     634185.3 (Joules/Mol)
                                  151.57393 (Kcal/Mol)
 Warning -- explicit consideration of  26 degrees of freedom as
           vibrations may cause significant error
 Vibrational temperatures:     16.73    29.08    37.85    78.49    83.54
          (Kelvin)            100.13   131.10   172.15   232.29   235.03
                              272.64   329.99   341.21   429.01   493.05
                              506.23   511.14   554.46   567.12   606.83
                              644.57   685.56   722.40   758.75   780.23
                              892.93   904.20   932.94  1018.77  1020.51
                             1082.86  1102.60  1134.76  1177.01  1194.29
                             1246.67  1267.02  1298.39  1342.73  1374.85
                             1383.86  1433.54  1494.21  1508.08  1555.22
                             1652.98  1667.12  1676.80  1699.51  1755.68
                             1769.33  1780.47  1824.42  1841.16  1850.61
                             1881.32  1910.22  1930.40  1935.90  1948.72
                             1961.63  2053.04  2068.50  2118.20  2181.43
                             2193.75  2197.75  2209.89  2220.66  2266.13
                             2287.60  2421.80  2455.82  2617.90  4395.48
                             4398.15  4431.02  4470.95  4524.87  4535.30
                             4546.04  4615.00  4669.70  4705.89  4748.66
                             5207.94  5236.95

 Zero-point correction=                           0.241548 (Hartree/Particle)
 Thermal correction to Energy=                    0.259134
 Thermal correction to Enthalpy=                  0.260078
 Thermal correction to Gibbs Free Energy=         0.191817
 Sum of electronic and zero-point Energies=           -985.922916
 Sum of electronic and thermal Energies=              -985.905330
 Sum of electronic and thermal Enthalpies=            -985.904386
 Sum of electronic and thermal Free Energies=         -985.972648

                     E (Thermal)             CV                S
                      KCal/Mol        Cal/Mol-Kelvin    Cal/Mol-Kelvin
 Total                  162.609             63.633            143.669
 Electronic               0.000              0.000              0.000
 Translational            0.889              2.981             42.590
 Rotational               0.889              2.981             33.830
 Vibrational            160.832             57.671             67.249
 Vibration     1          0.593              1.987              7.711
 Vibration     2          0.593              1.986              6.613
 Vibration     3          0.593              1.985              6.090
 Vibration     4          0.596              1.976              4.645
 Vibration     5          0.596              1.974              4.522
 Vibration     6          0.598              1.969              4.165
 Vibration     7          0.602              1.955              3.636
 Vibration     8          0.609              1.933              3.106
 Vibration     9          0.622              1.890              2.533
 Vibration    10          0.623              1.887              2.511
 Vibration    11          0.633              1.854              2.233
 Vibration    12          0.652              1.796              1.884
 Vibration    13          0.656              1.784              1.824
 Vibration    14          0.691              1.677              1.427
 Vibration    15          0.722              1.590              1.200
 Vibration    16          0.728              1.571              1.158
 Vibration    17          0.731              1.564              1.143
 Vibration    18          0.754              1.501              1.018
 Vibration    19          0.761              1.483              0.984
 Vibration    20          0.784              1.423              0.886
 Vibration    21          0.807              1.365              0.802
 Vibration    22          0.833              1.302              0.720
 Vibration    23          0.857              1.245              0.653
 Vibration    24          0.882              1.189              0.593
 Vibration    25          0.897              1.157              0.560
 Vibration    26          0.981              0.988              0.416

 Normal termination of Gaussian 09 at Thu Jul 12 19:38:49 2018.
