 Gaussian 09, Revision E.01,

 ----------------------------------------------------------------------
 # M062X/Gen 6D SCF=Tight INT(grid=ultrafine) OPT IOP(2/17=4) maxdisk=2
 684354560
 ----------------------------------------------------------------------

 ---------------------------
 4OCF3_EtO.M062X_6-31pGd_opt
 ---------------------------
 Symbolic Z-matrix:
 Charge = -1 Multiplicity = 1

 SCF Done:  E(RM062X) =  -1253.95984001     A.U. after   15 cycles
 SCF Done:  E(RM062X) =  -1253.96288568     A.U. after   14 cycles
 SCF Done:  E(RM062X) =  -1253.96313504     A.U. after   15 cycles
 SCF Done:  E(RM062X) =  -1253.96376900     A.U. after   16 cycles
 SCF Done:  E(RM062X) =  -1253.96478881     A.U. after   14 cycles
 SCF Done:  E(RM062X) =  -1253.96509367     A.U. after   13 cycles
 SCF Done:  E(RM062X) =  -1253.96519009     A.U. after   14 cycles
 SCF Done:  E(RM062X) =  -1253.96538191     A.U. after   12 cycles
 SCF Done:  E(RM062X) =  -1253.96549975     A.U. after   13 cycles
 SCF Done:  E(RM062X) =  -1253.96555813     A.U. after   12 cycles
 SCF Done:  E(RM062X) =  -1253.96785417     A.U. after   13 cycles
 SCF Done:  E(RM062X) =  -1253.96783056     A.U. after   12 cycles
 SCF Done:  E(RM062X) =  -1253.96786050     A.U. after   13 cycles
 SCF Done:  E(RM062X) =  -1253.96786077     A.U. after   10 cycles
 SCF Done:  E(RM062X) =  -1253.96786097     A.U. after   10 cycles
 SCF Done:  E(RM062X) =  -1253.96786111     A.U. after    9 cycles
 SCF Done:  E(RM062X) =  -1253.96786118     A.U. after    9 cycles
 SCF Done:  E(RM062X) =  -1253.96786119     A.U. after    7 cycles
 Optimization completed.
    -- Stationary point found.
 Normal termination of Gaussian 09 at Tue Feb 19 19:35:55 2019.
 Gaussian 09:  ES64L-G09RevE.01 30-Nov-2015

 ----------------------------------------------------------------------
 # M062X/Gen 6D SCF=Tight INT(grid=ultrafine) OPT IOP(2/17=4) Freq=Nora
 man maxdisk=2684354560 geom=check guess=read IOP(2/17=4)
 ----------------------------------------------------------------------

 ---------------------------
 4OCF3_EtO.M062X_6-31pGd_opt
 ---------------------------
 Structure from the checkpoint file:  "4OCF3_EtO.M062X_6-31pGd_opt.chk"
 Charge = -1 Multiplicity = 1

 SCF Done:  E(RM062X) =  -1253.96786119     A.U. after    1 cycles
 Optimization completed.
    -- Stationary point found.
 Normal termination of Gaussian 09 at Tue Feb 19 19:36:45 2019.

 ----------------------------------------------------------------------
 #N Geom=AllCheck Guess=TCheck SCRF=Check Test GenChk RM062X/ChkBas Fre
 q
 ----------------------------------------------------------------------

 Structure from the checkpoint file:  "4OCF3_EtO.M062X_6-31pGd_opt.chk"
 ---------------------------
 4OCF3_EtO.M062X_6-31pGd_opt
 ---------------------------
 Charge = -1 Multiplicity = 1

                         Standard orientation:
 ---------------------------------------------------------------------
 Center     Atomic      Atomic             Coordinates (Angstroms)
 Number     Number       Type             X           Y           Z
 ---------------------------------------------------------------------
      1          6           0       -3.287833   -0.252780    0.602734
      2          6           0       -2.514944    0.901189    0.566072
      3          6           0       -1.139744    0.790454    0.426165
      4          6           0       -0.521684   -0.475194    0.325952
      5          6           0       -1.327662   -1.628939    0.369735
      6          6           0       -2.708285   -1.507515    0.510913
      7          7           0        0.854988   -0.478680    0.195919
      8          6           0        1.687311   -1.579703    0.072108
      9          7           0        2.997061   -1.237595   -0.020145
     10          8           0        1.289727   -2.748630    0.057032
     11          6           0        4.001379   -2.247580   -0.258517
     12          6           0        5.388359   -1.679958    0.025622
     13          6           0        6.486919   -2.698561   -0.270035
     14          1           0       -0.510715    1.677073    0.394060
     15          1           0       -0.861020   -2.601592    0.296525
     16          1           0        1.300021    0.461112    0.187818
     17          1           0        3.276593   -0.244702   -0.119490
     18          1           0        3.954709   -2.613011   -1.298040
     19          1           0        3.796831   -3.111969    0.384593
     20          1           0        5.431593   -1.365687    1.075529
     21          1           0        5.535350   -0.771513   -0.570486
     22          1           0        6.357277   -3.605390    0.333101
     23          1           0        7.479846   -2.290540   -0.053617
     24          1           0        6.471351   -2.998050   -1.324704
     25          8           0       -4.685409   -0.144246    0.809650
     26          6           0       -5.441227   -0.066973   -0.289898
     27          9           0       -6.719937    0.040768    0.087318
     28          9           0       -5.153607    0.996541   -1.059376
     29          9           0       -5.341623   -1.149537   -1.080606
     30          1           0       -2.992168    1.873244    0.647326
     31          1           0       -3.337795   -2.391770    0.550710
     32          8           0        1.835006    2.133598    0.171264
     33          8           0        3.909306    1.418573   -0.310560
     34          6           0        3.052645    2.314374   -0.099124
     35          6           0        3.556275    3.765826   -0.179078
     36          6           0        2.482448    4.820248    0.059427
     37          1           0        4.021547    3.891288   -1.164586
     38          1           0        4.371520    3.862311    0.548928
     39          1           0        1.678380    4.725265   -0.676217
     40          1           0        2.898160    5.833533   -0.005281
     41          1           0        2.027869    4.690688    1.045826
 ---------------------------------------------------------------------

 SCF Done:  E(RM062X) =  -1253.96786119     A.U. after    1 cycles

 The electronic state is 1-A.
 Alpha  occ. eigenvalues --  -25.23008 -25.22478 -25.22478 -19.62374 -19.48502
 Alpha  occ. eigenvalues --  -19.46790 -19.46287 -14.65978 -14.64321 -10.77881
 Alpha  occ. eigenvalues --  -10.55458 -10.51769 -10.51469 -10.49634 -10.46727
 Alpha  occ. eigenvalues --  -10.46468 -10.46438 -10.45184 -10.44967 -10.44673
 Alpha  occ. eigenvalues --  -10.44306 -10.42793 -10.42719  -1.40348  -1.30524
 Alpha  occ. eigenvalues --   -1.29977  -1.14662  -1.04579  -1.02866  -0.93356
 Alpha  occ. eigenvalues --   -0.92841  -0.90003  -0.85680  -0.78295  -0.76218
 Alpha  occ. eigenvalues --   -0.75230  -0.74797  -0.71475  -0.67581  -0.64269
 Alpha  occ. eigenvalues --   -0.63164  -0.62460  -0.61278  -0.60943  -0.58345
 Alpha  occ. eigenvalues --   -0.56550  -0.54544  -0.51054  -0.50831  -0.49823
 Alpha  occ. eigenvalues --   -0.49675  -0.47945  -0.46238  -0.46029  -0.45671
 Alpha  occ. eigenvalues --   -0.44598  -0.43662  -0.43032  -0.42882  -0.42806
 Alpha  occ. eigenvalues --   -0.41311  -0.40651  -0.40285  -0.40149  -0.39630
 Alpha  occ. eigenvalues --   -0.38423  -0.37861  -0.36719  -0.35724  -0.35239
 Alpha  occ. eigenvalues --   -0.34607  -0.33822  -0.33543  -0.33274  -0.32374
 Alpha  occ. eigenvalues --   -0.30834  -0.30308  -0.30012  -0.29357  -0.28604
 Alpha  occ. eigenvalues --   -0.26206  -0.22122  -0.21337  -0.19649  -0.19122
 Alpha  occ. eigenvalues --   -0.18992  -0.18493  -0.14873
 Alpha virt. eigenvalues --    0.09925   0.10343   0.11167   0.11650   0.11766
 Alpha virt. eigenvalues --    0.11860   0.11970   0.12654   0.13277   0.13371
 Alpha virt. eigenvalues --    0.13535   0.14021   0.14669   0.15000   0.15146

 Mulliken charges:
               1
     1  C   -0.292788
     2  C    0.109885
     3  C   -0.668279
     4  C    0.148829
     5  C    0.335450
     6  C   -0.482496
     7  N   -0.674769
     8  C    0.789192
     9  N   -0.716040
    10  O   -0.619912
    11  C   -0.222639
    12  C   -0.306869
    13  C   -0.772597
    14  H    0.275644
    15  H    0.269947
    16  H    0.515598
    17  H    0.515690
    18  H    0.194027
    19  H    0.218240
    20  H    0.217424
    21  H    0.252122
    22  H    0.197896
    23  H    0.196261
    24  H    0.201034
    25  O   -0.451769
    26  C    1.230042
    27  F   -0.347664
    28  F   -0.342129
    29  F   -0.343435
    30  H    0.207818
    31  H    0.204704
    32  O   -0.673687
    33  O   -0.638603
    34  C    0.677555
    35  C   -0.506287
    36  C   -0.718184
    37  H    0.208625
    38  H    0.208278
    39  H    0.215623
    40  H    0.171611
    41  H    0.216655
 Sum of Mulliken charges =  -1.00000

 Dipole moment (field-independent basis, Debye):
    X=             -3.5811    Y=             -0.2376    Z=              0.0737  Tot=              3.5897
 Quadrupole moment (field-independent basis, Debye-Ang):
   XX=           -200.0410   YY=           -162.5676   ZZ=           -142.8649
   XY=             -6.3373   XZ=              1.1209   YZ=              0.0892

  Exact polarizability: 284.280  -9.702 212.384 -10.673   3.185 133.340
 Approx polarizability: 282.148  -4.657 247.321 -12.600   3.962 172.874

                      1                      2                      3
                      A                      A                      A
 Frequencies --     10.4204                15.2029                18.2367
 Red. masses --      2.0373                 6.5288                 5.2160
 Frc consts  --      0.0001                 0.0009                 0.0010
 IR Inten    --      0.3481                 0.2091                 0.5733

                      4                      5                      6
                      A                      A                      A
 Frequencies --     23.9701                37.2516                45.0938
 Red. masses --      3.2483                 5.7272                 6.1552
 Frc consts  --      0.0011                 0.0047                 0.0074
 IR Inten    --      0.1873                 0.2867                 0.8723

                      7                      8                      9
                      A                      A                      A
 Frequencies --     49.9346                52.4209                56.6689
 Red. masses --      2.7529                 3.6551                 5.9299
 Frc consts  --      0.0040                 0.0059                 0.0112
 IR Inten    --      1.1004                 1.1190                 1.6256

                     10                     11                     12
                      A                      A                      A
 Frequencies --     67.7142                77.7080                79.8281
 Red. masses --      5.2085                 5.4530                 5.7165
 Frc consts  --      0.0141                 0.0194                 0.0215
 IR Inten    --      1.4248                 0.9318                 4.7727

                     13                     14                     15
                      A                      A                      A
 Frequencies --     89.2204               112.8913               157.4167
 Red. masses --      7.3366                 6.5375                 3.4026
 Frc consts  --      0.0344                 0.0491                 0.0497
 IR Inten    --      3.9546                 4.6004                 8.3506

                     16                     17                     18
                      A                      A                      A
 Frequencies --    167.4658               184.8882               207.7145
 Red. masses --      6.9142                 6.7019                 3.5739
 Frc consts  --      0.1142                 0.1350                 0.0909
 IR Inten    --     24.9301                 7.5874                 4.0544

                     19                     20                     21
                      A                      A                      A
 Frequencies --    220.2143               235.1351               237.6382
 Red. masses --      1.1195                 1.5154                 2.8704
 Frc consts  --      0.0320                 0.0494                 0.0955
 IR Inten    --      0.4761                 0.0626                 1.2231

                     22                     23                     24
                      A                      A                      A
 Frequencies --    290.5773               305.0230               345.8605
 Red. masses --      5.6446                 4.3711                 6.1166
 Frc consts  --      0.2808                 0.2396                 0.4311
 IR Inten    --      5.0402                 9.7550                 4.5472

                     25                     26                     27
                      A                      A                      A
 Frequencies --    356.7451               372.2077               388.9247
 Red. masses --      5.7239                 6.7579                 6.9747
 Frc consts  --      0.4292                 0.5516                 0.6216
 IR Inten    --     12.6804                 1.1882                17.2028

                     28                     29                     30
                      A                      A                      A
 Frequencies --    433.5653               473.1275               481.1798
 Red. masses --      3.1900                 6.0314                 8.5715
 Frc consts  --      0.3533                 0.7955                 1.1693
 IR Inten    --      0.0705                 1.6250                 0.3253

                     31                     32                     33
                      A                      A                      A
 Frequencies --    518.9292               529.6966               547.8062
 Red. masses --      5.6635                 3.4771                 5.2006
 Frc consts  --      0.8986                 0.5748                 0.9195
 IR Inten    --     17.6562                13.4013                 9.2576

                     34                     35                     36
                      A                      A                      A
 Frequencies --    584.1059               619.3038               636.4888
 Red. masses --      1.9799                11.0636                 8.4744
 Frc consts  --      0.3980                 2.5001                 2.0227
 IR Inten    --      0.5257                 1.2560                12.0674

                     37                     38                     39
                      A                      A                      A
 Frequencies --    656.1714               657.5666               678.6149
 Red. masses --      9.0540                 4.6331                 6.7514
 Frc consts  --      2.2968                 1.1803                 1.8319
 IR Inten    --      2.9938                38.9521                10.2218

                     40                     41                     42
                      A                      A                      A
 Frequencies --    734.8162               751.6855               764.4740
 Red. masses --      4.7415                 1.1211                 3.1435
 Frc consts  --      1.5084                 0.3732                 1.0824
 IR Inten    --      1.9674                 2.3959                36.7839

                     43                     44                     45
                      A                      A                      A
 Frequencies --    776.5082               816.8517               820.9102
 Red. masses --      6.2004                 1.3857                 5.8428
 Frc consts  --      2.2027                 0.5448                 2.3198
 IR Inten    --      8.1349                 9.5866                17.5609

                     46                     47                     48
                      A                      A                      A
 Frequencies --    823.6209               849.5442               871.9557
 Red. masses --      1.4105                 1.2427                 2.6902
 Frc consts  --      0.5637                 0.5284                 1.2051
 IR Inten    --      9.3801                 7.0730                49.7641

                     49                     50                     51
                      A                      A                      A
 Frequencies --    882.3924               890.1575               899.1827
 Red. masses --      2.7067                 3.7671                 1.1884
 Frc consts  --      1.2417                 1.7587                 0.5661
 IR Inten    --     50.0525                20.4493                 6.0735

                     52                     53                     54
                      A                      A                      A
 Frequencies --    927.1557               946.6703               948.9659
 Red. masses --      1.7173                 1.2945                 4.3877
 Frc consts  --      0.8698                 0.6835                 2.3280
 IR Inten    --      3.2079                90.0351                 2.1795

                     55                     56                     57
                      A                      A                      A
 Frequencies --    984.2111              1004.5199              1021.7264
 Red. masses --      1.3150                 1.2956                 1.6646
 Frc consts  --      0.7505                 0.7702                 1.0238
 IR Inten    --     11.8099                 6.0510                 2.9253

                     58                     59                     60
                      A                      A                      A
 Frequencies --   1036.5420              1049.3172              1082.1674
 Red. masses --      2.7317                 3.6678                 2.6579
 Frc consts  --      1.7292                 2.3794                 1.8339
 IR Inten    --      0.5125                16.5758                 4.0274

                     61                     62                     63
                      A                      A                      A
 Frequencies --   1107.5311              1112.6629              1139.7848
 Red. masses --      1.7712                 2.3790                 1.3112
 Frc consts  --      1.2801                 1.7353                 1.0036
 IR Inten    --      0.7533                 5.2541                11.4177

                     64                     65                     66
                      A                      A                      A
 Frequencies --   1155.9841              1180.8577              1191.7732
 Red. masses --      2.1437                 1.7469                 1.2573
 Frc consts  --      1.6878                 1.4352                 1.0521
 IR Inten    --      1.2620                15.1344                 4.1731

                     67                     68                     69
                      A                      A                      A
 Frequencies --   1196.4444              1224.9430              1248.2739
 Red. masses --      3.2562                12.3499                 3.1460
 Frc consts  --      2.7463                10.9181                 2.8883
 IR Inten    --     11.9338               283.2895               113.6683

                     70                     71                     72
                      A                      A                      A
 Frequencies --   1272.8476              1280.7710              1285.9409
 Red. masses --      1.2074                10.6201                 1.1877
 Frc consts  --      1.1525                10.2641                 1.1571
 IR Inten    --     20.5404               412.8247                 0.1843

                     73                     74                     75
                      A                      A                      A
 Frequencies --   1303.1185              1321.2137              1327.2015
 Red. masses --      2.3000                 1.4381                 1.6050
 Frc consts  --      2.3012                 1.4791                 1.6657
 IR Inten    --    445.4635                10.2658                53.5705

                     76                     77                     78
                      A                      A                      A
 Frequencies --   1330.1734              1333.7768              1336.0360
 Red. masses --      1.4349                 1.7123                 6.1405
 Frc consts  --      1.4959                 1.7948                 6.4579
 IR Inten    --    146.7833                66.9382               817.8395

                     79                     80                     81
                      A                      A                      A
 Frequencies --   1369.7484              1392.2382              1421.2959
 Red. masses --      2.0586                 3.7307                 1.3223
 Frc consts  --      2.2757                 4.2605                 1.5739
 IR Inten    --    147.8246               142.8493                18.0681

                     82                     83                     84
                      A                      A                      A
 Frequencies --   1423.2392              1434.4723              1463.8968
 Red. masses --      1.3152                 1.6731                 3.3775
 Frc consts  --      1.5697                 2.0284                 4.2645
 IR Inten    --      8.7034                 3.2373                 6.1023

                     85                     86                     87
                      A                      A                      A
 Frequencies --   1470.8178              1490.9981              1511.2755
 Red. masses --      4.0889                 1.1943                 1.0395
 Frc consts  --      5.2117                 1.5643                 1.3988
 IR Inten    --    361.0921                16.4269                 4.8974

                     88                     89                     90
                      A                      A                      A
 Frequencies --   1513.4336              1522.8073              1523.7810
 Red. masses --      1.0652                 1.0409                 1.0950
 Frc consts  --      1.4375                 1.4221                 1.4979
 IR Inten    --      4.6399                 6.7626                52.6221

                     91                     92                     93
                      A                      A                      A
 Frequencies --   1528.2902              1541.4195              1571.4319
 Red. masses --      1.0715                 1.0856                 2.8497
 Frc consts  --      1.4746                 1.5197                 4.1461
 IR Inten    --      1.5245                12.0355               418.5630

                     94                     95                     96
                      A                      A                      A
 Frequencies --   1624.7470              1646.3110              1686.4771
 Red. masses --      2.5966                 2.4670                 6.2900
 Frc consts  --      4.0385                 3.9395                10.5406
 IR Inten    --    104.6591                47.0653               243.3684

                     97                     98                     99
                      A                      A                      A
 Frequencies --   1690.9643              1718.6899              1785.5559
 Red. masses --      3.0810                 3.6630                 3.0452
 Frc consts  --      5.1905                 6.3750                 5.7202
 IR Inten    --    245.8696               892.4343               341.7844

                    100                    101                    102
                      A                      A                      A
 Frequencies --   3009.5833              3063.0151              3065.4742
 Red. masses --      1.0724                 1.0361                 1.0451
 Frc consts  --      5.7232                 5.7276                 5.7864
 IR Inten    --     91.8836                58.1010                71.4150

                    103                    104                    105
                      A                      A                      A
 Frequencies --   3074.8105              3080.2478              3092.3193
 Red. masses --      1.0579                 1.0618                 1.0904
 Frc consts  --      5.8931                 5.9358                 6.1436
 IR Inten    --     75.3229                16.6545                26.6226

                    106                    107                    108
                      A                      A                      A
 Frequencies --   3107.2997              3109.4717              3114.5754
 Red. masses --      1.1013                 1.0948                 1.1010
 Frc consts  --      6.2651                 6.2366                 6.2927
 IR Inten    --     17.2795               569.0187                16.0300

                    109                    110                    111
                      A                      A                      A
 Frequencies --   3137.1546              3137.5550              3137.7871
 Red. masses --      1.1027                 1.1014                 1.0955
 Frc consts  --      6.3939                 6.3884                 6.3547
 IR Inten    --     60.5791                40.6396                45.0806

                    112                    113                    114
                      A                      A                      A
 Frequencies --   3160.8573              3207.5071              3220.8671
 Red. masses --      1.1022                 1.0902                 1.0905
 Frc consts  --      6.4881                 6.6085                 6.6654
 IR Inten    --     37.7253              1613.1396               187.4670

                    115                    116                    117
                      A                      A                      A
 Frequencies --   3229.8817              3236.7907              3296.1060
 Red. masses --      1.0917                 1.0950                 1.0920
 Frc consts  --      6.7101                 6.7590                 6.9900
 IR Inten    --      4.5498                13.3016                 8.3519

 - Thermochemistry -
 -------------------
 Temperature   298.150 Kelvin.  Pressure   1.00000 Atm.
 Atom     1 has atomic number  6 and mass  12.00000

 Molecular mass:   335.12187 amu.
 Principal axes and moments of inertia in atomic units:
                           1         2         3
     Eigenvalues --  4858.44206********************
           X            0.99997  -0.00578  -0.00470
           Y            0.00580   0.99998   0.00265
           Z            0.00468  -0.00268   0.99999
 This molecule is an asymmetric top.
 Rotational symmetry number  1.
 Warning -- assumption of classical behavior for rotation
           may cause significant error
 Rotational temperatures (Kelvin)      0.01783     0.00466     0.00379
 Rotational constants (GHZ):           0.37147     0.09700     0.07898
 Zero-point vibrational energy     843779.0 (Joules/Mol)
                                  201.66802 (Kcal/Mol)
 Warning -- explicit consideration of  35 degrees of freedom as
           vibrations may cause significant error
 Vibrational temperatures:     14.99    21.87    26.24    34.49    53.60
          (Kelvin)             64.88    71.84    75.42    81.53    97.43
                              111.80   114.85   128.37   162.43   226.49
                              240.95   266.01   298.85   316.84   338.31
                              341.91   418.08   438.86   497.62   513.28
                              535.52   559.58   623.80   680.72   692.31
                              746.62   762.11   788.17   840.40   891.04
                              915.76   944.08   946.09   976.37  1057.24
                             1081.51  1099.91  1117.22  1175.27  1181.11
                             1185.01  1222.30  1254.55  1269.56  1280.74
                             1293.72  1333.97  1362.05  1365.35  1416.06
                             1445.28  1470.03  1491.35  1509.73  1557.00
                             1593.49  1600.87  1639.89  1663.20  1698.99
                             1714.69  1721.41  1762.42  1795.99  1831.34
                             1842.74  1850.18  1874.89  1900.93  1909.54
                             1913.82  1919.00  1922.26  1970.76  2003.12
                             2044.93  2047.72  2063.88  2106.22  2116.18
                             2145.21  2174.39  2177.49  2190.98  2192.38
                             2198.87  2217.76  2260.94  2337.65  2368.67
                             2426.46  2432.92  2472.81  2569.01  4330.11
                             4406.99  4410.53  4423.96  4431.78  4449.15
                             4470.71  4473.83  4481.17  4513.66  4514.24
                             4514.57  4547.76  4614.88  4634.10  4647.07
                             4657.01  4742.36

 Zero-point correction=                           0.321378 (Hartree/Particle)
 Thermal correction to Energy=                    0.345777
 Thermal correction to Enthalpy=                  0.346721
 Thermal correction to Gibbs Free Energy=         0.259441
 Sum of electronic and zero-point Energies=          -1253.646483
 Sum of electronic and thermal Energies=             -1253.622085
 Sum of electronic and thermal Enthalpies=           -1253.621140
 Sum of electronic and thermal Free Energies=        -1253.708420

                     E (Thermal)             CV                S
                      KCal/Mol        Cal/Mol-Kelvin    Cal/Mol-Kelvin
 Total                  216.978             84.813            183.695
 Electronic               0.000              0.000              0.000
 Translational            0.889              2.981             43.323
 Rotational               0.889              2.981             35.978
 Vibrational            215.201             78.852            104.394
 Vibration     1          0.593              1.987              7.929
 Vibration     2          0.593              1.986              7.179
 Vibration     3          0.593              1.986              6.817
 Vibration     4          0.593              1.985              6.275
 Vibration     5          0.594              1.982              5.400
 Vibration     6          0.595              1.979              5.022
 Vibration     7          0.595              1.978              4.820
 Vibration     8          0.596              1.977              4.724
 Vibration     9          0.596              1.975              4.570
 Vibration    10          0.598              1.970              4.219
 Vibration    11          0.599              1.964              3.948
 Vibration    12          0.600              1.963              3.895
 Vibration    13          0.602              1.957              3.677
 Vibration    14          0.607              1.939              3.219
 Vibration    15          0.621              1.894              2.581
 Vibration    16          0.624              1.882              2.464
 Vibration    17          0.631              1.860              2.278
 Vibration    18          0.641              1.829              2.064
 Vibration    19          0.647              1.810              1.957
 Vibration    20          0.655              1.787              1.839
 Vibration    21          0.656              1.783              1.820
 Vibration    22          0.687              1.691              1.471
 Vibration    23          0.696              1.664              1.389
 Vibration    24          0.724              1.584              1.185
 Vibration    25          0.732              1.561              1.136
 Vibration    26          0.744              1.529              1.071
 Vibration    27          0.757              1.494              1.004
 Vibration    28          0.794              1.397              0.847
 Vibration    29          0.830              1.310              0.729
 Vibration    30          0.837              1.292              0.707
 Vibration    31          0.874              1.208              0.612
 Vibration    32          0.885              1.184              0.588
 Vibration    33          0.903              1.144              0.549
 Vibration    34          0.941              1.066              0.478
 Vibration    35          0.979              0.991              0.418

 Normal termination of Gaussian 09 at Tue Feb 19 20:26:07 2019.
