 Gaussian 09, Revision E.01,

 ----------------------------------------------------------------------
 # M062X/Gen 6D SCF=Tight INT(grid=ultrafine) OPT IOP(2/17=4) SCRF=(SMD
 ,Solvent=h2o) maxdisk=2684354560
 ----------------------------------------------------------------------

 ---------------------------------
 4OCF3_EtO.M062X_6-31pGd_opt_water
 ---------------------------------
 Symbolic Z-matrix:
 Charge = -1 Multiplicity = 1

 SCF Done:  E(RM062X) =  -1253.98914664     A.U. after   14 cycles
 SCF Done:  E(RM062X) =  -1254.02719959     A.U. after   13 cycles
 SCF Done:  E(RM062X) =  -1254.03757375     A.U. after   13 cycles
 SCF Done:  E(RM062X) =  -1254.03879750     A.U. after   12 cycles
 SCF Done:  E(RM062X) =  -1254.03926419     A.U. after   11 cycles
 SCF Done:  E(RM062X) =  -1254.03941478     A.U. after   12 cycles
 SCF Done:  E(RM062X) =  -1254.03945622     A.U. after   12 cycles
 SCF Done:  E(RM062X) =  -1254.03947458     A.U. after   12 cycles
 SCF Done:  E(RM062X) =  -1254.03952775     A.U. after   12 cycles
 SCF Done:  E(RM062X) =  -1254.03953571     A.U. after   10 cycles
 SCF Done:  E(RM062X) =  -1254.03996585     A.U. after    9 cycles
 SCF Done:  E(RM062X) =  -1254.03996607     A.U. after    9 cycles
 SCF Done:  E(RM062X) =  -1254.03996625     A.U. after    9 cycles
 SCF Done:  E(RM062X) =  -1254.03996637     A.U. after    8 cycles
 SCF Done:  E(RM062X) =  -1254.03996643     A.U. after    8 cycles
 Optimization completed.
    -- Stationary point found.
 Normal termination of Gaussian 09 at Tue Feb 19 14:07:54 2019.
 Gaussian 09:  ES64L-G09RevE.01 30-Nov-2015

 ----------------------------------------------------------------------
 # M062X/Gen 6D SCF=Tight INT(grid=ultrafine) OPT IOP(2/17=4) SCRF=(SMD
 ,Solvent=h2o) Freq=Noraman maxdisk=2684354560 geom=check guess=read IO
 P(2/17=4)
 ----------------------------------------------------------------------

 ---------------------------------
 4OCF3_EtO.M062X_6-31pGd_opt_water
 ---------------------------------
 Structure from the checkpoint file:  "4OCF3_EtO.M062X_6-31pGd_opt_water.chk"
 Charge = -1 Multiplicity = 1

 SCF Done:  E(RM062X) =  -1254.03996643     A.U. after    1 cycles
 SCF Done:  E(RM062X) =  -1254.03996635     A.U. after    8 cycles
 SCF Done:  E(RM062X) =  -1254.03996634     A.U. after    8 cycles
 SCF Done:  E(RM062X) =  -1254.03996639     A.U. after    8 cycles
 Optimization completed.
    -- Stationary point found.
 Normal termination of Gaussian 09 at Tue Feb 19 14:18:08 2019.

 ----------------------------------------------------------------------
 #N Geom=AllCheck Guess=TCheck SCRF=Check Test GenChk RM062X/ChkBas Fre
 q
 ----------------------------------------------------------------------

 Structure from the checkpoint file:  "4OCF3_EtO.M062X_6-31pGd_opt_water.chk"
 ---------------------------------
 4OCF3_EtO.M062X_6-31pGd_opt_water
 ---------------------------------
 Charge = -1 Multiplicity = 1

                         Standard orientation:
 ---------------------------------------------------------------------
 Center     Atomic      Atomic             Coordinates (Angstroms)
 Number     Number       Type             X           Y           Z
 ---------------------------------------------------------------------
      1          6           0       -3.322564   -0.781230    0.029862
      2          6           0       -2.668199    0.385699    0.404487
      3          6           0       -1.277461    0.415816    0.350671
      4          6           0       -0.539858   -0.699204   -0.067690
      5          6           0       -1.227255   -1.858763   -0.453116
      6          6           0       -2.616674   -1.897188   -0.396974
      7          7           0        0.854772   -0.571834   -0.137491
      8          6           0        1.764849   -1.585760    0.072198
      9          7           0        3.053570   -1.189749    0.028958
     10          8           0        1.435537   -2.767784    0.291952
     11          6           0        4.138769   -2.146580    0.184351
     12          6           0        5.482795   -1.442979    0.062296
     13          6           0        6.637230   -2.425007    0.234329
     14          1           0       -0.754963    1.321963    0.644800
     15          1           0       -0.683646   -2.723823   -0.809850
     16          1           0        1.222429    0.388607   -0.061345
     17          1           0        3.281042   -0.229415   -0.256884
     18          1           0        4.058336   -2.932198   -0.578234
     19          1           0        4.060585   -2.635772    1.162853
     20          1           0        5.546550   -0.651063    0.818893
     21          1           0        5.547901   -0.955428   -0.918408
     22          1           0        6.599852   -2.904658    1.218758
     23          1           0        7.602424   -1.917922    0.143143
     24          1           0        6.597334   -3.213104   -0.525881
     25          8           0       -4.719097   -0.947236    0.079639
     26          6           0       -5.522868    0.126903    0.005602
     27          9           0       -6.768828   -0.306257   -0.174852
     28          9           0       -5.511037    0.867327    1.126952
     29          9           0       -5.211806    0.946262   -1.007813
     30          1           0       -3.205819    1.264883    0.741443
     31          1           0       -3.158100   -2.789580   -0.695498
     32          8           0        1.859786    2.102641    0.185550
     33          8           0        3.774350    1.505815   -0.801125
     34          6           0        3.001161    2.369628   -0.287435
     35          6           0        3.503337    3.810061   -0.249506
     36          6           0        2.551205    4.810337    0.390103
     37          1           0        3.729868    4.095564   -1.283944
     38          1           0        4.465697    3.798506    0.276132
     39          1           0        1.597923    4.848798   -0.146051
     40          1           0        2.986806    5.814501    0.376618
     41          1           0        2.340998    4.547348    1.431395
 ---------------------------------------------------------------------

 SCF Done:  E(RM062X) =  -1254.03996639     A.U. after    1 cycles

 The electronic state is 1-A.
 Alpha  occ. eigenvalues --  -25.31939 -25.31835 -25.31557 -19.72242 -19.61505
 Alpha  occ. eigenvalues --  -19.60570 -19.60179 -14.78148 -14.76949 -10.87338
 Alpha  occ. eigenvalues --  -10.68151 -10.64983 -10.62930 -10.60309 -10.57106
 Alpha  occ. eigenvalues --  -10.56669 -10.56309 -10.56039 -10.55837 -10.53817
 Alpha  occ. eigenvalues --  -10.53593 -10.52764 -10.52579  -1.49644  -1.39751
 Alpha  occ. eigenvalues --   -1.39254  -1.24359  -1.17115  -1.16386  -1.06589
 Alpha  occ. eigenvalues --   -1.04867  -1.01854  -0.96583  -0.88322  -0.86622
 Alpha  occ. eigenvalues --   -0.85735  -0.85662  -0.81425  -0.77445  -0.74425
 Alpha  occ. eigenvalues --   -0.73231  -0.72156  -0.72143  -0.70159  -0.68408
 Alpha  occ. eigenvalues --   -0.67600  -0.65377  -0.62312  -0.61088  -0.59942
 Alpha  occ. eigenvalues --   -0.59335  -0.58725  -0.57379  -0.55716  -0.55365
 Alpha  occ. eigenvalues --   -0.55111  -0.54121  -0.53494  -0.53006  -0.52838
 Alpha  occ. eigenvalues --   -0.52705  -0.52086  -0.51111  -0.50721  -0.50423
 Alpha  occ. eigenvalues --   -0.50334  -0.49355  -0.47291  -0.46461  -0.46221
 Alpha  occ. eigenvalues --   -0.45831  -0.45683  -0.44167  -0.43625  -0.41652
 Alpha  occ. eigenvalues --   -0.41383  -0.41187  -0.39561  -0.39443  -0.38923
 Alpha  occ. eigenvalues --   -0.36561  -0.35476  -0.33709  -0.32703  -0.32315
 Alpha  occ. eigenvalues --   -0.31843  -0.31601  -0.26525
 Alpha virt. eigenvalues --    0.01071   0.01716   0.02041   0.02772   0.03430
 Alpha virt. eigenvalues --    0.03666   0.03978   0.04409   0.04602   0.05137
 Alpha virt. eigenvalues --    0.05164   0.05687   0.05924   0.06712   0.06926

 Mulliken charges:
               1
     1  C   -0.330526
     2  C    0.333888
     3  C   -0.192256
     4  C    0.012259
     5  C   -0.032694
     6  C   -0.584026
     7  N   -0.640764
     8  C    0.706937
     9  N   -0.784591
    10  O   -0.760177
    11  C   -0.184335
    12  C   -0.329161
    13  C   -0.839538
    14  H    0.265961
    15  H    0.264721
    16  H    0.518828
    17  H    0.518357
    18  H    0.233855
    19  H    0.235245
    20  H    0.236455
    21  H    0.235376
    22  H    0.221036
    23  H    0.222636
    24  H    0.221135
    25  O   -0.439338
    26  C    1.249179
    27  F   -0.338461
    28  F   -0.329415
    29  F   -0.337115
    30  H    0.272116
    31  H    0.268080
    32  O   -0.783834
    33  O   -0.775909
    34  C    0.734406
    35  C   -0.480679
    36  C   -0.739924
    37  H    0.245155
    38  H    0.244375
    39  H    0.222208
    40  H    0.218180
    41  H    0.222357
 Sum of Mulliken charges =  -1.00000

 Dipole moment (field-independent basis, Debye):
    X=             -5.3786    Y=              0.5831    Z=              0.4299  Tot=              5.4272
 Quadrupole moment (field-independent basis, Debye-Ang):
   XX=           -177.4135   YY=           -154.5928   ZZ=           -142.3172
   XY=             -6.2392   XZ=              6.5977   YZ=              6.3818

  Exact polarizability: 344.938  -6.425 283.972  -9.597  16.090 204.062
 Approx polarizability: 272.167  -0.912 238.450  -8.281  13.768 177.536

                      1                      2                      3
                      A                      A                      A
 Frequencies --     17.0277                24.8369                27.6656
 Red. masses --      6.1210                 3.9419                 3.2235
 Frc consts  --      0.0010                 0.0014                 0.0015
 IR Inten    --      1.6894                 2.1756                 0.4246

                      4                      5                      6
                      A                      A                      A
 Frequencies --     28.1575                32.5821                42.9240
 Red. masses --      5.0208                 4.8285                 3.9220
 Frc consts  --      0.0023                 0.0030                 0.0043
 IR Inten    --      1.2753                 0.7776                 4.9823

                      7                      8                      9
                      A                      A                      A
 Frequencies --     46.3052                55.0409                60.2541
 Red. masses --      2.1419                 5.4925                 4.9130
 Frc consts  --      0.0027                 0.0098                 0.0105
 IR Inten    --      1.2263                10.5095                 4.5448

                     10                     11                     12
                      A                      A                      A
 Frequencies --     66.8534                79.0055                87.6795
 Red. masses --      5.0174                 5.2481                 6.5646
 Frc consts  --      0.0132                 0.0193                 0.0297
 IR Inten    --      3.3704                 6.7235                 1.2819

                     13                     14                     15
                      A                      A                      A
 Frequencies --    108.7080               110.5115               143.6443
 Red. masses --      6.3655                 7.0037                 5.1743
 Frc consts  --      0.0443                 0.0504                 0.0629
 IR Inten    --     14.3831                16.6321                11.6102

                     16                     17                     18
                      A                      A                      A
 Frequencies --    155.3708               161.8568               188.6551
 Red. masses --      3.6839                 5.4325                 7.4605
 Frc consts  --      0.0524                 0.0839                 0.1564
 IR Inten    --     22.4560                12.0732                 5.0109

                     19                     20                     21
                      A                      A                      A
 Frequencies --    236.0863               239.6936               251.1133
 Red. masses --      1.1457                 5.0061                 1.0836
 Frc consts  --      0.0376                 0.1695                 0.0403
 IR Inten    --      0.1122                 5.0345                 1.5457

                     22                     23                     24
                      A                      A                      A
 Frequencies --    297.3104               307.1890               344.1228
 Red. masses --      5.0696                 4.8992                 5.1165
 Frc consts  --      0.2640                 0.2724                 0.3570
 IR Inten    --      9.6196                 8.1552                20.8080

                     25                     26                     27
                      A                      A                      A
 Frequencies --    354.0676               366.9368               399.5827
 Red. masses --      5.5876                 7.6365                 6.7562
 Frc consts  --      0.4127                 0.6058                 0.6356
 IR Inten    --     11.2087                11.6968                 8.6083

                     28                     29                     30
                      A                      A                      A
 Frequencies --    425.9651               451.9768               475.9769
 Red. masses --      3.0779                11.6124                 5.0354
 Frc consts  --      0.3290                 1.3977                 0.6721
 IR Inten    --      0.7457                 0.6149                 2.8746

                     31                     32                     33
                      A                      A                      A
 Frequencies --    517.6023               526.4496               539.6451
 Red. masses --      5.6521                 2.7068                 7.2525
 Frc consts  --      0.8922                 0.4420                 1.2444
 IR Inten    --     27.0373                28.1953                 4.2642

                     34                     35                     36
                      A                      A                      A
 Frequencies --    578.8523               615.4957               625.8707
 Red. masses --      1.9127                14.9030                 5.6330
 Frc consts  --      0.3776                 3.3264                 1.3000
 IR Inten    --      1.8067                 7.8094                13.0148

                     37                     38                     39
                      A                      A                      A
 Frequencies --    639.3481               648.2184               660.9716
 Red. masses --      2.9486                 3.6220                 1.9322
 Frc consts  --      0.7101                 0.8967                 0.4974
 IR Inten    --     46.5932               104.6143               103.6719

                     40                     41                     42
                      A                      A                      A
 Frequencies --    699.6484               717.4817               731.6910
 Red. masses --      7.6870                 4.2907                 1.6900
 Frc consts  --      2.2170                 1.3014                 0.5331
 IR Inten    --      9.8956                 1.9827               142.1510

                     43                     44                     45
                      A                      A                      A
 Frequencies --    758.1704               776.7476               798.4988
 Red. masses --      1.1493                 4.7898                 2.4341
 Frc consts  --      0.3892                 1.7027                 0.9144
 IR Inten    --      7.8376                14.2343                88.1491

                     46                     47                     48
                      A                      A                      A
 Frequencies --    819.8150               824.2681               837.8768
 Red. masses --      1.5182                 3.5523                 1.2535
 Frc consts  --      0.6012                 1.4220                 0.5185
 IR Inten    --     30.4337               110.7580                 7.4300

                     49                     50                     51
                      A                      A                      A
 Frequencies --    863.2840               884.9275               892.7816
 Red. masses --      2.0071                 4.2741                 4.2781
 Frc consts  --      0.8813                 1.9720                 2.0090
 IR Inten    --     92.8693                37.8523                 4.9576

                     52                     53                     54
                      A                      A                      A
 Frequencies --    905.0922               932.3689               956.6270
 Red. masses --      1.1503                 1.6709                10.4677
 Frc consts  --      0.5552                 0.8558                 5.6440
 IR Inten    --      2.3617                 3.9903                22.7919

                     55                     56                     57
                      A                      A                      A
 Frequencies --    971.0230               990.8235              1026.8071
 Red. masses --      1.3350                 1.3383                 1.6463
 Frc consts  --      0.7416                 0.7741                 1.0227
 IR Inten    --      0.8094                 0.8405                13.4708

                     58                     59                     60
                      A                      A                      A
 Frequencies --   1037.9461              1051.5152              1084.5733
 Red. masses --      2.5868                 4.0485                 2.5102
 Frc consts  --      1.6420                 2.6374                 1.7397
 IR Inten    --      3.2138                15.0667                 2.9365

                     61                     62                     63
                      A                      A                      A
 Frequencies --   1108.6142              1112.4916              1139.7478
 Red. masses --      1.7899                 2.3332                 1.2782
 Frc consts  --      1.2961                 1.7013                 0.9783
 IR Inten    --      2.2623                16.3891                30.9463

                     64                     65                     66
                      A                      A                      A
 Frequencies --   1155.3014              1178.8717              1181.0814
 Red. masses --      2.3863                 2.7459                 2.1072
 Frc consts  --      1.8766                 2.2484                 1.7319
 IR Inten    --      9.0424                23.4660                64.4867

                     67                     68                     69
                      A                      A                      A
 Frequencies --   1182.1131              1206.3036              1231.2371
 Red. masses --      6.9463                 1.1676                 9.9521
 Frc consts  --      5.7190                 1.0011                 8.8889
 IR Inten    --    498.6671                51.9407               723.0994

                     70                     71                     72
                      A                      A                      A
 Frequencies --   1269.6587              1278.8562              1290.2747
 Red. masses --      8.9934                 1.1948                 1.2155
 Frc consts  --      8.5418                 1.1513                 1.1923
 IR Inten    --   1108.2123                 0.7097                33.3437

                     73                     74                     75
                      A                      A                      A
 Frequencies --   1291.1109              1311.1492              1325.1221
 Red. masses --      2.1475                 1.8550                 1.0774
 Frc consts  --      2.1092                 1.8788                 1.1147
 IR Inten    --    413.0722                 3.7444                 0.7808

                     76                     77                     78
                      A                      A                      A
 Frequencies --   1329.8550              1336.4505              1350.1114
 Red. masses --      1.5515                 1.7396                 2.5166
 Frc consts  --      1.6166                 1.8306                 2.7027
 IR Inten    --    118.9078                86.9074                51.3784

                     79                     80                     81
                      A                      A                      A
 Frequencies --   1357.1137              1367.5292              1419.9010
 Red. masses --      2.6546                 3.6996                 1.3110
 Frc consts  --      2.8806                 4.0764                 1.5572
 IR Inten    --    564.0814                 5.0952                22.2269

                     82                     83                     84
                      A                      A                      A
 Frequencies --   1420.2852              1429.9032              1455.3728
 Red. masses --      1.2885                 1.6710                 1.3234
 Frc consts  --      1.5314                 2.0130                 1.6516
 IR Inten    --     14.5121                15.7736               158.4775

                     85                     86                     87
                      A                      A                      A
 Frequencies --   1464.2132              1472.6448              1488.6016
 Red. masses --      3.2789                 2.8848                 1.0601
 Frc consts  --      4.1417                 3.6861                 1.3840
 IR Inten    --     36.6486               273.5083                 6.2306

                     88                     89                     90
                      A                      A                      A
 Frequencies --   1501.2364              1502.5132              1509.0045
 Red. masses --      1.0400                 1.0397                 1.1175
 Frc consts  --      1.3810                 1.3829                 1.4993
 IR Inten    --     11.2767                11.5036                76.2594

                     91                     92                     93
                      A                      A                      A
 Frequencies --   1510.8598              1530.9740              1556.1039
 Red. masses --      1.0829                 1.0940                 7.1369
 Frc consts  --      1.4565                 1.5107                10.1821
 IR Inten    --      2.0311                47.4337               895.2445

                     94                     95                     96
                      A                      A                      A
 Frequencies --   1571.5466              1591.2772              1614.8612
 Red. masses --      2.8638                 2.4377                 2.1230
 Frc consts  --      4.1673                 3.6368                 3.2619
 IR Inten    --   1004.1522               360.0958              1160.3859

                     97                     98                     99
                      A                      A                      A
 Frequencies --   1676.7751              1694.6388              1709.0040
 Red. masses --      6.6018                 3.6878                 3.3495
 Frc consts  --     10.9361                 6.2398                 5.7640
 IR Inten    --    301.6301               155.6264               286.2620

                    100                    101                    102
                      A                      A                      A
 Frequencies --   3066.5346              3074.7926              3076.3931
 Red. masses --      1.0591                 1.0568                 1.0395
 Frc consts  --      5.8677                 5.8869                 5.7962
 IR Inten    --     37.7401                47.6580                89.7025

                    103                    104                    105
                      A                      A                      A
 Frequencies --   3083.0386              3084.5857              3097.9973
 Red. masses --      1.0512                 1.0466                 1.1033
 Frc consts  --      5.8872                 5.8672                 6.2388
 IR Inten    --     56.4225                10.4498                12.7500

                    106                    107                    108
                      A                      A                      A
 Frequencies --   3118.4617              3119.9602              3145.2029
 Red. masses --      1.1061                 1.1016                 1.1038
 Frc consts  --      6.3378                 6.3178                 6.4332
 IR Inten    --     60.0802                 8.7347                94.8820

                    109                    110                    111
                      A                      A                      A
 Frequencies --   3153.5714              3155.7243              3159.3656
 Red. masses --      1.1024                 1.1021                 1.1036
 Frc consts  --      6.4595                 6.4665                 6.4904
 IR Inten    --     53.2315                49.5215                57.4559

                    112                    113                    114
                      A                      A                      A
 Frequencies --   3231.7685              3245.0191              3264.3764
 Red. masses --      1.0917                 1.0927                 1.0940
 Frc consts  --      6.7182                 6.7791                 6.8689
 IR Inten    --      2.7852                 4.3669                 5.1548

                    115                    116                    117
                      A                      A                      A
 Frequencies --   3274.9559              3282.8195              3349.3897
 Red. masses --      1.0862                 1.0937                 1.0859
 Frc consts  --      6.8640                 6.9446                 7.1775
 IR Inten    --    908.5415                 2.9715              1393.2075

 - Thermochemistry -
 -------------------
 Temperature   298.150 Kelvin.  Pressure   1.00000 Atm.
 Atom     1 has atomic number  6 and mass  12.00000

 Molecular mass:   335.12187 amu.
 Principal axes and moments of inertia in atomic units:
                           1         2         3
     Eigenvalues --  4829.46843********************
           X            1.00000  -0.00116   0.00138
           Y            0.00115   0.99998   0.00543
           Z           -0.00139  -0.00543   0.99998
 This molecule is an asymmetric top.
 Rotational symmetry number  1.
 Warning -- assumption of classical behavior for rotation
           may cause significant error
 Rotational temperatures (Kelvin)      0.01793     0.00454     0.00371
 Rotational constants (GHZ):           0.37369     0.09460     0.07735
 Zero-point vibrational energy     841023.7 (Joules/Mol)
                                  201.00949 (Kcal/Mol)
 Warning -- explicit consideration of  35 degrees of freedom as
           vibrations may cause significant error
 Vibrational temperatures:     24.50    35.73    39.80    40.51    46.88
          (Kelvin)             61.76    66.62    79.19    86.69    96.19
                              113.67   126.15   156.41   159.00   206.67
                              223.54   232.88   271.43   339.68   344.87
                              361.30   427.76   441.98   495.12   509.42
                              527.94   574.91   612.87   650.29   684.82
                              744.71   757.44   776.43   832.84   885.56
                              900.49   919.88   932.64   950.99  1006.64
                             1032.29  1052.74  1090.84  1117.57  1148.86
                             1179.53  1185.94  1205.52  1242.07  1273.21
                             1284.51  1302.22  1341.47  1376.37  1397.08
                             1425.57  1477.34  1493.37  1512.89  1560.46
                             1595.05  1600.63  1639.84  1662.22  1696.13
                             1699.31  1700.80  1735.60  1771.47  1826.75
                             1839.99  1856.42  1857.62  1886.45  1906.55
                             1913.36  1922.85  1942.51  1952.58  1967.57
                             2042.92  2043.47  2057.31  2093.95  2106.67
                             2118.80  2141.76  2159.94  2161.78  2171.12
                             2173.79  2202.73  2238.88  2261.10  2289.49
                             2323.42  2412.50  2438.20  2458.87  4412.05
                             4423.94  4426.24  4435.80  4438.03  4457.32
                             4486.77  4488.92  4525.24  4537.28  4540.38
                             4545.62  4649.79  4668.85  4696.70  4711.93
                             4723.24  4819.02

 Zero-point correction=                           0.320329 (Hartree/Particle)
 Thermal correction to Energy=                    0.344844
 Thermal correction to Enthalpy=                  0.345789
 Thermal correction to Gibbs Free Energy=         0.259627
 Sum of electronic and zero-point Energies=          -1253.719637
 Sum of electronic and thermal Energies=             -1253.695122
 Sum of electronic and thermal Enthalpies=           -1253.694178
 Sum of electronic and thermal Free Energies=        -1253.780340

                     E (Thermal)             CV                S
                      KCal/Mol        Cal/Mol-Kelvin    Cal/Mol-Kelvin
 Total                  216.393             85.698            181.343
 Electronic               0.000              0.000              0.000
 Translational            0.889              2.981             43.323
 Rotational               0.889              2.981             36.018
 Vibrational            214.616             79.736            102.003
 Vibration     1          0.593              1.986              6.954
 Vibration     2          0.593              1.985              6.204
 Vibration     3          0.593              1.984              5.990
 Vibration     4          0.593              1.984              5.955
 Vibration     5          0.594              1.983              5.666
 Vibration     6          0.595              1.980              5.119
 Vibration     7          0.595              1.979              4.969
 Vibration     8          0.596              1.976              4.628
 Vibration     9          0.597              1.973              4.449
 Vibration    10          0.598              1.970              4.244
 Vibration    11          0.600              1.963              3.915
 Vibration    12          0.601              1.958              3.711
 Vibration    13          0.606              1.942              3.292
 Vibration    14          0.606              1.941              3.260
 Vibration    15          0.616              1.910              2.755
 Vibration    16          0.620              1.897              2.605
 Vibration    17          0.622              1.889              2.528
 Vibration    18          0.633              1.855              2.241
 Vibration    19          0.655              1.786              1.832
 Vibration    20          0.657              1.780              1.805
 Vibration    21          0.663              1.761              1.723
 Vibration    22          0.691              1.679              1.432
 Vibration    23          0.697              1.660              1.377
 Vibration    24          0.723              1.587              1.193
 Vibration    25          0.730              1.567              1.148
 Vibration    26          0.740              1.540              1.093
 Vibration    27          0.766              1.471              0.964
 Vibration    28          0.788              1.414              0.872
 Vibration    29          0.811              1.357              0.790
 Vibration    30          0.833              1.303              0.721
 Vibration    31          0.873              1.211              0.616
 Vibration    32          0.881              1.191              0.595
 Vibration    33          0.895              1.162              0.566
 Vibration    34          0.935              1.077              0.487
 Vibration    35          0.975              0.999              0.424

 Normal termination of Gaussian 09 at Tue Feb 19 15:08:19 2019.
