 Gaussian 09, Revision E.01,

 ------------------------------------------------------------
 # M062X/Gen 6D SCF=Tight INT(grid=ultrafine) OPT IOP(2/17=4)
 ------------------------------------------------------------

 ---------------------------
 triclofen.M062X_6-31pGd_opt
 ---------------------------
 Symbolic Z-matrix:
 Charge =  0 Multiplicity = 1

 SCF Done:  E(RM062X) =  -2065.78824466     A.U. after   16 cycles
 SCF Done:  E(RM062X) =  -2065.79717926     A.U. after   15 cycles
 SCF Done:  E(RM062X) =  -2065.79757442     A.U. after   13 cycles
 SCF Done:  E(RM062X) =  -2065.79775008     A.U. after   13 cycles
 SCF Done:  E(RM062X) =  -2065.79776061     A.U. after   11 cycles
 SCF Done:  E(RM062X) =  -2065.79776091     A.U. after   10 cycles
 SCF Done:  E(RM062X) =  -2065.79776121     A.U. after    9 cycles
 SCF Done:  E(RM062X) =  -2065.79776125     A.U. after    9 cycles
 SCF Done:  E(RM062X) =  -2065.79776131     A.U. after   10 cycles
 SCF Done:  E(RM062X) =  -2065.79776137     A.U. after   10 cycles
 SCF Done:  E(RM062X) =  -2065.79750970     A.U. after   16 cycles
 SCF Done:  E(RM062X) =  -2065.79769338     A.U. after   16 cycles
 SCF Done:  E(RM062X) =  -2065.79778490     A.U. after   16 cycles
 SCF Done:  E(RM062X) =  -2065.79778803     A.U. after   12 cycles
 SCF Done:  E(RM062X) =  -2065.79778931     A.U. after   11 cycles
 SCF Done:  E(RM062X) =  -2065.79779060     A.U. after   13 cycles
 SCF Done:  E(RM062X) =  -2065.79779102     A.U. after   11 cycles
 SCF Done:  E(RM062X) =  -2065.79779115     A.U. after   10 cycles
 SCF Done:  E(RM062X) =  -2065.79779116     A.U. after    9 cycles
 Optimization completed.
    -- Stationary point found.
 Normal termination of Gaussian 09 at Mon Oct  8 22:32:34 2018.
 Gaussian 09:  ES64L-G09RevE.01 30-Nov-2015

 ----------------------------------------------------------------------
 # M062X/Gen 6D SCF=Tight INT(grid=ultrafine) Freq=Noraman IOP(2/17=4)
 geom=check guess=read IOP(2/17=4)
 ----------------------------------------------------------------------

 ---------------------------
 triclofen.M062X_6-31pGd_opt
 ---------------------------
 Structure from the checkpoint file:  "triclofen.M062X_6-31pGd_opt.chk"
 Charge =  0 Multiplicity = 1

                         Standard orientation:
 ---------------------------------------------------------------------
 Center     Atomic      Atomic             Coordinates (Angstroms)
 Number     Number       Type             X           Y           Z
 ---------------------------------------------------------------------
      1          6           0        4.547318   -0.746118    0.055856
      2          6           0        4.265917    0.616163   -0.054453
      3          6           0        2.948710    1.058049   -0.054436
      4          6           0        1.888931    0.152902    0.059411
      5          6           0        2.165936   -1.215226    0.171804
      6          6           0        3.488310   -1.642741    0.167145
      7         17           0        5.533323    1.790276   -0.197359
      8         17           0        6.175653   -1.338864    0.057438
      9          7           0        0.593291    0.696978    0.070417
     10          6           0       -0.605138    0.003464    0.025908
     11          8           0       -0.679859   -1.209249   -0.036553
     12          7           0       -1.701296    0.842906    0.059736
     13          1           0        2.759962    2.124310   -0.144945
     14          1           0        1.361143   -1.930862    0.255799
     15          1           0        3.709061   -2.701719    0.252784
     16          1           0        0.557435    1.705628    0.011172
     17          1           0       -1.537266    1.827420    0.221192
     18          6           0       -3.060350    0.472960    0.029921
     19          6           0       -3.508865   -0.826849   -0.230754
     20          6           0       -4.876509   -1.090221   -0.256372
     21          6           0       -5.794861   -0.072907   -0.028055
     22          6           0       -5.360050    1.223015    0.229489
     23          6           0       -3.997540    1.488288    0.258740
     24         17           0       -7.503197   -0.419162   -0.064110
     25          1           0       -2.799117   -1.622820   -0.405501
     26          1           0       -5.226540   -2.097561   -0.456926
     27          1           0       -6.079137    2.015544    0.407731
     28          1           0       -3.659730    2.501947    0.463320
 ---------------------------------------------------------------------

 SCF Done:  E(RM062X) =  -2065.79779116     A.U. after    2 cycles

 The electronic state is 1-A.
 Alpha  occ. eigenvalues -- -102.68684-102.68159-102.67496 -19.64155 -14.83341
 Alpha  occ. eigenvalues --  -14.83138 -10.72030 -10.64137 -10.63372 -10.63202
 Alpha  occ. eigenvalues --  -10.62629 -10.62227 -10.58914 -10.58427 -10.58199
 Alpha  occ. eigenvalues --  -10.58103 -10.57701 -10.57375 -10.57011  -9.83328
 Alpha  occ. eigenvalues --   -9.82799  -9.82164  -7.55744  -7.55216  -7.55064
 Alpha  occ. eigenvalues --   -7.55039  -7.54567  -7.54534  -7.54514  -7.53901
 Alpha  occ. eigenvalues --   -7.53894  -1.21138  -1.09561  -1.07325  -1.03004
 Alpha  occ. eigenvalues --   -1.00376  -0.96825  -0.95270  -0.93825  -0.87134
 Alpha  occ. eigenvalues --   -0.86786  -0.85129  -0.82682  -0.75572  -0.73823
 Alpha  occ. eigenvalues --   -0.73107  -0.69844  -0.68309  -0.66183  -0.64336
 Alpha  occ. eigenvalues --   -0.61503  -0.57630  -0.56960  -0.56499  -0.56282
 Alpha  occ. eigenvalues --   -0.54708  -0.53380  -0.52891  -0.52272  -0.51530
 Alpha  occ. eigenvalues --   -0.50860  -0.50698  -0.48541  -0.46880  -0.45600
 Alpha  occ. eigenvalues --   -0.45153  -0.44926  -0.43787  -0.42509  -0.42181
 Alpha  occ. eigenvalues --   -0.39954  -0.38354  -0.38053  -0.37645  -0.37523
 Alpha  occ. eigenvalues --   -0.36793  -0.33040  -0.32256  -0.29715  -0.27696
 Alpha virt. eigenvalues --   -0.02339  -0.01226  -0.00650  -0.00127   0.00998
 Alpha virt. eigenvalues --    0.01337   0.01556   0.02080   0.02458   0.03148
 Alpha virt. eigenvalues --    0.03496   0.03674   0.04408   0.04972   0.05678

 Mulliken charges:
               1
     1  C   -0.224325
     2  C   -0.370775
     3  C   -0.736629
     4  C   -0.261552
     5  C    1.011730
     6  C   -0.627451
     7  Cl   0.230879
     8  Cl   0.245333
     9  N   -0.594435
    10  C    0.928691
    11  O   -0.580122
    12  N   -0.590475
    13  H    0.213659
    14  H    0.276772
    15  H    0.237753
    16  H    0.409255
    17  H    0.406861
    18  C   -0.243980
    19  C    0.892419
    20  C   -0.727050
    21  C    0.265733
    22  C   -0.513744
    23  C   -0.789554
    24  Cl   0.208261
    25  H    0.272403
    26  H    0.232784
    27  H    0.231410
    28  H    0.196150
 Sum of Mulliken charges =  -0.00000

 Dipole moment (field-independent basis, Debye):
    X=             -0.8777    Y=              3.6045    Z=              0.3571  Tot=              3.7270
 Quadrupole moment (field-independent basis, Debye-Ang):
   XX=           -163.3129   YY=           -117.1776   ZZ=           -136.2979
   XY=             -6.6997   XZ=             -0.4742   YZ=              1.5469

  Exact polarizability: 346.137   1.737 193.369  -1.678   3.177 105.232
 Approx polarizability: 337.886   3.935 269.570  -2.640   5.676 140.234

                      1                      2                      3
                      A                      A                      A
 Frequencies --      6.9767                14.3729                41.2646
 Red. masses --      5.9808                 6.9185                 9.7577
 Frc consts  --      0.0002                 0.0008                 0.0098
 IR Inten    --      1.6548                 0.1930                 0.6768

                      4                      5                      6
                      A                      A                      A
 Frequencies --     47.1934                57.0213               115.6925
 Red. masses --      8.2581                 9.5611                 7.0522
 Frc consts  --      0.0108                 0.0183                 0.0556
 IR Inten    --     10.0837                 0.4302                 0.2733

                      7                      8                      9
                      A                      A                      A
 Frequencies --    136.4619               150.5121               175.4800
 Red. masses --      5.8305                10.9050                12.3203
 Frc consts  --      0.0640                 0.1456                 0.2235
 IR Inten    --      0.2760                 2.4794                 1.5007

                     10                     11                     12
                      A                      A                      A
 Frequencies --    190.0852               212.1310               255.6342
 Red. masses --      5.9088                21.9757                10.2355
 Frc consts  --      0.1258                 0.5826                 0.3941
 IR Inten    --      0.4090                 0.0542                 0.0564

                     13                     14                     15
                      A                      A                      A
 Frequencies --    296.3162               312.8035               335.2041
 Red. masses --      1.3277                 9.3126                 6.7107
 Frc consts  --      0.0687                 0.5369                 0.4443
 IR Inten    --      3.5732                 8.2233                 0.9093

                     16                     17                     18
                      A                      A                      A
 Frequencies --    349.0738               361.8193               395.6179
 Red. masses --      4.0893                 8.6537                 6.2152
 Frc consts  --      0.2936                 0.6675                 0.5731
 IR Inten    --      1.8751                 7.3248                 4.9366

                     19                     20                     21
                      A                      A                      A
 Frequencies --    418.8943               433.7406               448.4097
 Red. masses --      3.0457                 9.3197                 3.0904
 Frc consts  --      0.3149                 1.0330                 0.3661
 IR Inten    --      0.1410                25.8062                 1.1097

                     22                     23                     24
                      A                      A                      A
 Frequencies --    474.0779               509.2491               516.9677
 Red. masses --      6.7024                 1.6497                 1.8207
 Frc consts  --      0.8875                 0.2521                 0.2867
 IR Inten    --      5.4967                47.5034               118.8091

                     25                     26                     27
                      A                      A                      A
 Frequencies --    518.9095               591.1038               641.3497
 Red. masses --      7.0585                 4.9802                 7.1415
 Frc consts  --      1.1198                 1.0252                 1.7307
 IR Inten    --     11.2318                 3.7180                 2.6828

                     28                     29                     30
                      A                      A                      A
 Frequencies --    656.5167               693.7472               697.2107
 Red. masses --      7.5533                 6.2381                 4.0911
 Frc consts  --      1.9181                 1.7689                 1.1717
 IR Inten    --     18.9685                 5.1933                 4.2966

                     31                     32                     33
                      A                      A                      A
 Frequencies --    713.2555               744.9788               748.8396
 Red. masses --      3.7913                 7.4673                 8.2355
 Frc consts  --      1.1364                 2.4418                 2.7209
 IR Inten    --      1.3113                14.0325                 8.8443

                     34                     35                     36
                      A                      A                      A
 Frequencies --    822.2516               833.0473               855.8095
 Red. masses --      6.0493                 1.4371                 1.3418
 Frc consts  --      2.4097                 0.5876                 0.5790
 IR Inten    --     10.0687                21.9243                 8.6701

                     37                     38                     39
                      A                      A                      A
 Frequencies --    861.3133               869.0619               874.8025
 Red. masses --      1.4191                 6.1147                 1.5557
 Frc consts  --      0.6203                 2.7210                 0.7014
 IR Inten    --     44.4653                 5.4876                46.6289

                     40                     41                     42
                      A                      A                      A
 Frequencies --    943.0562               963.7896               995.2574
 Red. masses --      5.6268                 1.3298                 1.3105
 Frc consts  --      2.9484                 0.7278                 0.7648
 IR Inten    --     14.2875                 0.0689                 0.1058

                     43                     44                     45
                      A                      A                      A
 Frequencies --    998.2460              1029.2375              1047.6029
 Red. masses --      1.3252                 3.6295                 5.0055
 Frc consts  --      0.7780                 2.2653                 3.2366
 IR Inten    --      0.6688                24.8087                24.5288

                     46                     47                     48
                      A                      A                      A
 Frequencies --   1088.2220              1137.5878              1153.9882
 Red. masses --      5.8619                 2.5123                 1.3223
 Frc consts  --      4.0900                 1.9156                 1.0375
 IR Inten    --      6.4859                75.4268                27.6462

                     49                     50                     51
                      A                      A                      A
 Frequencies --   1181.2732              1187.6452              1214.1595
 Red. masses --      1.8755                 1.3663                 1.1566
 Frc consts  --      1.5419                 1.1354                 1.0046
 IR Inten    --    121.8560                15.6470                53.5567

                     52                     53                     54
                      A                      A                      A
 Frequencies --   1228.5482              1269.6410              1287.2409
 Red. masses --      2.0112                 2.4369                 2.1798
 Frc consts  --      1.7885                 2.3144                 2.1281
 IR Inten    --    325.8973                36.8357                27.9204

                     55                     56                     57
                      A                      A                      A
 Frequencies --   1306.8321              1327.7724              1340.2678
 Red. masses --      3.3984                 1.7371                 2.5691
 Frc consts  --      3.4195                 1.8044                 2.7190
 IR Inten    --     15.4029                36.1250               318.2142

                     58                     59                     60
                      A                      A                      A
 Frequencies --   1357.9445              1431.9816              1452.9454
 Red. masses --      3.4950                 2.9673                 3.1688
 Frc consts  --      3.7972                 3.5850                 3.9413
 IR Inten    --      7.5298                66.8155               139.8750

                     61                     62                     63
                      A                      A                      A
 Frequencies --   1537.3135              1550.1749              1578.8838
 Red. masses --      2.9406                 2.2909                 2.2366
 Frc consts  --      4.0946                 3.2435                 3.2850
 IR Inten    --    461.9167               164.5207                 6.0694

                     64                     65                     66
                      A                      A                      A
 Frequencies --   1584.8221              1659.5903              1672.6451
 Red. masses --      2.4490                 4.7542                 5.1584
 Frc consts  --      3.6242                 7.7150                 8.5029
 IR Inten    --   1467.6418               110.9704                61.2990

                     67                     68                     69
                      A                      A                      A
 Frequencies --   1683.4379              1688.3313              1828.1901
 Red. masses --      6.4282                 6.2178                 8.4349
 Frc consts  --     10.7333                10.4424                16.6101
 IR Inten    --     83.9554                 4.4370               204.8360

                     70                     71                     72
                      A                      A                      A
 Frequencies --   3204.6372              3224.0488              3245.9446
 Red. masses --      1.0902                 1.0916                 1.0921
 Frc consts  --      6.5963                 6.6853                 6.7794
 IR Inten    --     13.6204                 4.3978                 1.0947

                     73                     74                     75
                      A                      A                      A
 Frequencies --   3246.6253              3248.8620              3304.2294
 Red. masses --      1.0920                 1.0941                 1.0925
 Frc consts  --      6.7815                 6.8044                 7.0275
 IR Inten    --      0.5193                 1.3452                 9.3665

                     76                     77                     78
                      A                      A                      A
 Frequencies --   3311.4456              3635.9833              3648.1758
 Red. masses --      1.0925                 1.0776                 1.0770
 Frc consts  --      7.0583                 8.3936                 8.4451
 IR Inten    --     12.4331                 4.5763                43.9285

 - Thermochemistry -
 -------------------
 Temperature   298.150 Kelvin.  Pressure   1.00000 Atm.
 Atom     1 has atomic number  6 and mass  12.00000

 Molecular mass:   313.97805 amu.
 Principal axes and moments of inertia in atomic units:
                           1         2         3
     Eigenvalues --  1470.14333********************
           X            1.00000  -0.00297  -0.00000
           Y            0.00297   0.99997   0.00730
           Z           -0.00002  -0.00730   0.99997
 This molecule is an asymmetric top.
 Rotational symmetry number  1.
 Warning -- assumption of classical behavior for rotation
           may cause significant error
 Rotational temperatures (Kelvin)      0.05892     0.00354     0.00335
 Rotational constants (GHZ):           1.22760     0.07379     0.06973
 Zero-point vibrational energy     521415.0 (Joules/Mol)
                                  124.62117 (Kcal/Mol)
 Warning -- explicit consideration of  26 degrees of freedom as
           vibrations may cause significant error
 Vibrational temperatures:     10.04    20.68    59.37    67.90    82.04
          (Kelvin)            166.46   196.34   216.55   252.48   273.49
                              305.21   367.80   426.33   450.05   482.28
                              502.24   520.58   569.21   602.69   624.06
                              645.16   682.09   732.69   743.80   746.59
                              850.47   922.76   944.58   998.15  1003.13
                             1026.21  1071.86  1077.41  1183.04  1198.57
                             1231.32  1239.24  1250.38  1258.64  1356.85
                             1386.68  1431.95  1436.25  1480.84  1507.27
                             1565.71  1636.73  1660.33  1699.59  1708.75
                             1746.90  1767.60  1826.73  1852.05  1880.24
                             1910.37  1928.34  1953.78  2060.30  2090.46
                             2211.85  2230.35  2271.66  2280.20  2387.78
                             2406.56  2422.09  2429.13  2630.35  4610.75
                             4638.68  4670.18  4671.16  4674.38  4754.04
                             4764.43  5231.36  5248.90

 Zero-point correction=                           0.198596 (Hartree/Particle)
 Thermal correction to Energy=                    0.215757
 Thermal correction to Enthalpy=                  0.216701
 Thermal correction to Gibbs Free Energy=         0.148639
 Sum of electronic and zero-point Energies=          -2065.599195
 Sum of electronic and thermal Energies=             -2065.582034
 Sum of electronic and thermal Enthalpies=           -2065.581090
 Sum of electronic and thermal Free Energies=        -2065.649152

                     E (Thermal)             CV                S
                      KCal/Mol        Cal/Mol-Kelvin    Cal/Mol-Kelvin
 Total                  135.390             63.246            143.248
 Electronic               0.000              0.000              0.000
 Translational            0.889              2.981             43.129
 Rotational               0.889              2.981             35.186
 Vibrational            133.612             57.284             64.934
 Vibration     1          0.593              1.987              8.726
 Vibration     2          0.593              1.986              7.290
 Vibration     3          0.594              1.981              5.197
 Vibration     4          0.595              1.979              4.932
 Vibration     5          0.596              1.975              4.558
 Vibration     6          0.608              1.936              3.171
 Vibration     7          0.614              1.917              2.853
 Vibration     8          0.618              1.902              2.666
 Vibration     9          0.627              1.873              2.376
 Vibration    10          0.633              1.854              2.227
 Vibration    11          0.643              1.822              2.025
 Vibration    12          0.666              1.753              1.691
 Vibration    13          0.690              1.681              1.438
 Vibration    14          0.701              1.649              1.347
 Vibration    15          0.716              1.605              1.235
 Vibration    16          0.726              1.577              1.170
 Vibration    17          0.736              1.551              1.114
 Vibration    18          0.762              1.480              0.979
 Vibration    19          0.782              1.429              0.896
 Vibration    20          0.794              1.397              0.847
 Vibration    21          0.807              1.364              0.801
 Vibration    22          0.831              1.308              0.726
 Vibration    23          0.864              1.230              0.635
 Vibration    24          0.872              1.212              0.617
 Vibration    25          0.874              1.208              0.612
 Vibration    26          0.949              1.051              0.465

 Optimization completed.
    -- Stationary point found.
 Normal termination of Gaussian 09 at Tue Oct  9 01:56:26 2018.
