 Gaussian 09, Revision E.01,

 ----------------------------------------------------------------------
 # M062X/Gen 6D SCF=Tight INT(grid=ultrafine) OPT IOP(2/17=4) SCRF=(SMD
 ,Solvent=h2o)
 ----------------------------------------------------------------------

 ---------------------------------
 triclofen.M062X_6-31pGd_opt_water
 ---------------------------------
 Symbolic Z-matrix:
 Charge =  0 Multiplicity = 1

 SCF Done:  E(RM062X) =  -2065.81102205     A.U. after   15 cycles
 SCF Done:  E(RM062X) =  -2065.81948297     A.U. after   16 cycles
 SCF Done:  E(RM062X) =  -2065.81988016     A.U. after   12 cycles
 SCF Done:  E(RM062X) =  -2065.81990391     A.U. after   11 cycles
 SCF Done:  E(RM062X) =  -2065.81991141     A.U. after   11 cycles
 SCF Done:  E(RM062X) =  -2065.81991249     A.U. after    9 cycles
 SCF Done:  E(RM062X) =  -2065.81991277     A.U. after    9 cycles
 SCF Done:  E(RM062X) =  -2065.81991340     A.U. after   10 cycles
 SCF Done:  E(RM062X) =  -2065.70698826     A.U. after   16 cycles
 SCF Done:  E(RM062X) =  -2065.81991358     A.U. after    8 cycles
 SCF Done:  E(RM062X) =  -2065.82025925     A.U. after   13 cycles
 SCF Done:  E(RM062X) =  -2065.82028629     A.U. after   13 cycles
 SCF Done:  E(RM062X) =  -2065.82030366     A.U. after   13 cycles
 SCF Done:  E(RM062X) =  -2065.82032538     A.U. after   13 cycles
 SCF Done:  E(RM062X) =  -2065.82033254     A.U. after   13 cycles
 SCF Done:  E(RM062X) =  -2065.82033739     A.U. after   11 cycles
 SCF Done:  E(RM062X) =  -2065.82033936     A.U. after   11 cycles
 SCF Done:  E(RM062X) =  -2065.82033984     A.U. after   10 cycles
 SCF Done:  E(RM062X) =  -2065.82034002     A.U. after    9 cycles
 Optimization completed.
    -- Stationary point found.
 Normal termination of Gaussian 09 at Mon Oct  8 23:05:27 2018.
 Gaussian 09:  ES64L-G09RevE.01 30-Nov-2015

 ----------------------------------------------------------------------
 # M062X/Gen 6D SCF=Tight INT(grid=ultrafine) Freq=Noraman IOP(2/17=4)
 SCRF=(SMD,Solvent=h2o) geom=check guess=read IOP(2/17=4)
 ----------------------------------------------------------------------

 ---------------------------------
 triclofen.M062X_6-31pGd_opt_water
 ---------------------------------
 Structure from the checkpoint file:  "triclofen.M062X_6-31pGd_opt_water.chk"
 Charge =  0 Multiplicity = 1

                         Standard orientation:
 ---------------------------------------------------------------------
 Center     Atomic      Atomic             Coordinates (Angstroms)
 Number     Number       Type             X           Y           Z
 ---------------------------------------------------------------------
      1          6           0        4.498634   -0.757403    0.143799
      2          6           0        4.236438    0.584156   -0.136031
      3          6           0        2.934441    1.066852   -0.111310
      4          6           0        1.871627    0.214028    0.205541
      5          6           0        2.133294   -1.128843    0.504390
      6          6           0        3.439645   -1.601562    0.463637
      7         17           0        5.522365    1.685655   -0.532026
      8         17           0        6.117355   -1.391516    0.112234
      9          7           0        0.589058    0.781835    0.250279
     10          6           0       -0.600220    0.111157    0.081574
     11          8           0       -0.671209   -1.101948   -0.117760
     12          7           0       -1.696050    0.931631    0.157166
     13          1           0        2.746049    2.112360   -0.338545
     14          1           0        1.331670   -1.801126    0.776320
     15          1           0        3.641401   -2.642673    0.694827
     16          1           0        0.560977    1.797535    0.235268
     17          1           0       -1.549761    1.876053    0.501017
     18          6           0       -3.041626    0.527503    0.067232
     19          6           0       -3.459615   -0.573609   -0.688167
     20          6           0       -4.813476   -0.896112   -0.755840
     21          6           0       -5.743680   -0.111446   -0.084728
     22          6           0       -5.346555    0.998329    0.654235
     23          6           0       -3.994360    1.310421    0.730576
     24         17           0       -7.443833   -0.519897   -0.176582
     25          1           0       -2.741238   -1.173843   -1.230896
     26          1           0       -5.136015   -1.751721   -1.340752
     27          1           0       -6.078975    1.610020    1.171097
     28          1           0       -3.672869    2.171764    1.310534
 ---------------------------------------------------------------------

 SCF Done:  E(RM062X) =  -2065.82034002     A.U. after    2 cycles

 The electronic state is 1-A.
 Alpha  occ. eigenvalues -- -102.68569-102.68368-102.67531 -19.63316 -14.81111
 Alpha  occ. eigenvalues --  -14.80846 -10.70777 -10.63574 -10.62839 -10.62132
 Alpha  occ. eigenvalues --  -10.61714 -10.61258 -10.57606 -10.57604 -10.56964
 Alpha  occ. eigenvalues --  -10.56895 -10.56680 -10.56561 -10.56348  -9.83215
 Alpha  occ. eigenvalues --   -9.83009  -9.82200  -7.55623  -7.55417  -7.54960
 Alpha  occ. eigenvalues --   -7.54932  -7.54753  -7.54731  -7.54593  -7.53949
 Alpha  occ. eigenvalues --   -7.53937  -1.19660  -1.07684  -1.05577  -1.02478
 Alpha  occ. eigenvalues --   -0.99739  -0.96609  -0.94552  -0.93125  -0.86085
 Alpha  occ. eigenvalues --   -0.85839  -0.84324  -0.81833  -0.74161  -0.72449
 Alpha  occ. eigenvalues --   -0.71804  -0.68650  -0.66743  -0.64433  -0.62857
 Alpha  occ. eigenvalues --   -0.60280  -0.56744  -0.56308  -0.55288  -0.55214
 Alpha  occ. eigenvalues --   -0.53358  -0.52375  -0.51914  -0.51057  -0.50572
 Alpha  occ. eigenvalues --   -0.50101  -0.49669  -0.47696  -0.46176  -0.44664
 Alpha  occ. eigenvalues --   -0.44346  -0.43671  -0.42642  -0.42195  -0.41545
 Alpha  occ. eigenvalues --   -0.39954  -0.38274  -0.38070  -0.37036  -0.36705
 Alpha  occ. eigenvalues --   -0.36433  -0.32168  -0.31631  -0.29224  -0.26996
 Alpha virt. eigenvalues --   -0.00491   0.00052   0.00740   0.00932   0.01313
 Alpha virt. eigenvalues --    0.01800   0.02117   0.02897   0.03339   0.03699
 Alpha virt. eigenvalues --    0.04136   0.04495   0.05423   0.05860   0.06384

 Mulliken charges:
               1
     1  C   -0.313572
     2  C   -0.175598
     3  C   -0.787609
     4  C    0.137367
     5  C    0.682260
     6  C   -0.663143
     7  Cl   0.194158
     8  Cl   0.204778
     9  N   -0.632885
    10  C    0.651089
    11  O   -0.709708
    12  N   -0.611664
    13  H    0.281545
    14  H    0.278296
    15  H    0.277174
    16  H    0.497655
    17  H    0.494090
    18  C    0.072429
    19  C    0.576745
    20  C   -0.835730
    21  C    0.247232
    22  C   -0.524269
    23  C   -0.574213
    24  Cl   0.156777
    25  H    0.271191
    26  H    0.269159
    27  H    0.270859
    28  H    0.265589
 Sum of Mulliken charges =  -0.00000

 Dipole moment (field-independent basis, Debye):
    X=             -1.2489    Y=              6.3986    Z=              1.7807  Tot=              6.7582
 Quadrupole moment (field-independent basis, Debye-Ang):
   XX=           -176.2594   YY=           -116.6482   ZZ=           -132.2930
   XY=             -9.5769   XZ=             -1.7517   YZ=              4.6940

  Exact polarizability: 423.730   3.451 274.615 -10.203  14.154 175.094
 Approx polarizability: 338.429   4.491 250.534  -9.528  12.763 162.391

                      1                      2                      3
                      A                      A                      A
 Frequencies --     13.5149                20.8373                40.1918
 Red. masses --     11.3759                 5.4524                 9.9550
 Frc consts  --      0.0012                 0.0014                 0.0095
 IR Inten    --      1.7382                 1.5142                 1.4728

                      4                      5                      6
                      A                      A                      A
 Frequencies --     56.2630                71.9544               103.5002
 Red. masses --      8.1381                 8.1970                 7.5590
 Frc consts  --      0.0152                 0.0250                 0.0477
 IR Inten    --     24.3714                 0.8898                 3.4383

                      7                      8                      9
                      A                      A                      A
 Frequencies --    138.3556               161.3319               184.7952
 Red. masses --      6.9725                10.5182                11.2333
 Frc consts  --      0.0786                 0.1613                 0.2260
 IR Inten    --      0.9471                 2.9684                 5.3927

                     10                     11                     12
                      A                      A                      A
 Frequencies --    193.6675               213.3549               263.6319
 Red. masses --      6.9884                19.4605                10.0763
 Frc consts  --      0.1544                 0.5219                 0.4126
 IR Inten    --      0.5385                 0.1184                 0.5799

                     13                     14                     15
                      A                      A                      A
 Frequencies --    295.6424               336.0157               342.5274
 Red. masses --      8.6055                 5.6171                 7.6172
 Frc consts  --      0.4432                 0.3737                 0.5265
 IR Inten    --     14.0412                 0.0361                 2.9370

                     16                     17                     18
                      A                      A                      A
 Frequencies --    369.5489               407.1400               422.7378
 Red. masses --      9.0177                 5.3903                 3.0955
 Frc consts  --      0.7256                 0.5264                 0.3259
 IR Inten    --     23.1680                 9.8755                 0.1972

                     19                     20                     21
                      A                      A                      A
 Frequencies --    430.1858               448.5486               451.7647
 Red. masses --      6.4761                 1.3191                 2.7754
 Frc consts  --      0.7061                 0.1564                 0.3337
 IR Inten    --     45.6509                56.2406                 3.6982

                     22                     23                     24
                      A                      A                      A
 Frequencies --    473.7077               505.3650               514.3184
 Red. masses --      5.7910                 1.2466                 4.3648
 Frc consts  --      0.7656                 0.1876                 0.6803
 IR Inten    --      8.5777               341.7750                27.7437

                     25                     26                     27
                      A                      A                      A
 Frequencies --    518.0866               590.1380               638.2710
 Red. masses --      3.6339                 4.8590                 7.0613
 Frc consts  --      0.5747                 0.9970                 1.6949
 IR Inten    --     34.5553                 5.7034                 3.7055

                     28                     29                     30
                      A                      A                      A
 Frequencies --    651.6220               686.4686               697.1303
 Red. masses --      7.5261                 6.1446                 4.1006
 Frc consts  --      1.8828                 1.7060                 1.1742
 IR Inten    --     35.3650                 7.3396                 9.2609

                     31                     32                     33
                      A                      A                      A
 Frequencies --    714.8605               743.1522               755.4366
 Red. masses --      3.9762                 7.2305                 7.9881
 Frc consts  --      1.1972                 2.3528                 2.6859
 IR Inten    --      2.1625                16.7470                42.9383

                     34                     35                     36
                      A                      A                      A
 Frequencies --    822.7075               841.8164               843.2740
 Red. masses --      3.7205                 1.2870                 1.4179
 Frc consts  --      1.4837                 0.5374                 0.5941
 IR Inten    --     94.8501                 4.5045                21.0046

                     37                     38                     39
                      A                      A                      A
 Frequencies --    856.2192               870.3937               893.4364
 Red. masses --      1.8828                 5.3154                 1.5526
 Frc consts  --      0.8133                 2.3726                 0.7302
 IR Inten    --     76.7804                22.9879                58.9171

                     40                     41                     42
                      A                      A                      A
 Frequencies --    944.5057               975.6480               985.5832
 Red. masses --      5.6088                 1.3332                 1.3247
 Frc consts  --      2.9480                 0.7477                 0.7582
 IR Inten    --     26.4895                 0.4109                 0.3552

                     43                     44                     45
                      A                      A                      A
 Frequencies --    995.1466              1027.3648              1040.4806
 Red. masses --      1.3477                 3.8280                 5.2149
 Frc consts  --      0.7864                 2.3805                 3.3263
 IR Inten    --      0.0068                41.0424                38.0623

                     46                     47                     48
                      A                      A                      A
 Frequencies --   1094.2532              1127.6455              1148.1349
 Red. masses --      5.6019                 2.4584                 1.3404
 Frc consts  --      3.9520                 1.8418                 1.0411
 IR Inten    --      8.6396                68.8668                33.5560

                     49                     50                     51
                      A                      A                      A
 Frequencies --   1170.5049              1178.3027              1207.2830
 Red. masses --      1.2410                 2.1177                 1.1193
 Frc consts  --      1.0018                 1.7324                 0.9612
 IR Inten    --      1.0857               141.6005                20.5138

                     52                     53                     54
                      A                      A                      A
 Frequencies --   1261.7131              1273.2037              1296.8333
 Red. masses --      2.3295                 2.6982                 1.8657
 Frc consts  --      2.1849                 2.5770                 1.8487
 IR Inten    --    606.6056                94.2608                74.4365

                     55                     56                     57
                      A                      A                      A
 Frequencies --   1312.7564              1329.9866              1344.7608
 Red. masses --      4.8911                 1.5750                 3.0449
 Frc consts  --      4.9662                 1.6414                 3.2443
 IR Inten    --     33.9477                24.9773               620.7548

                     58                     59                     60
                      A                      A                      A
 Frequencies --   1363.6569              1433.9038              1450.6391
 Red. masses --      3.7441                 3.3509                 3.1677
 Frc consts  --      4.1021                 4.0593                 3.9274
 IR Inten    --      7.4960               107.4056               156.6309

                     61                     62                     63
                      A                      A                      A
 Frequencies --   1532.7886              1547.5288              1587.6654
 Red. masses --      2.9640                 2.5861                 2.2377
 Frc consts  --      4.1029                 3.6489                 3.3233
 IR Inten    --    690.5191               234.5669              1480.3159

                     64                     65                     66
                      A                      A                      A
 Frequencies --   1598.1975              1665.5319              1672.5750
 Red. masses --      2.3603                 4.5524                 6.3309
 Frc consts  --      3.5520                 7.4404                10.4349
 IR Inten    --    110.4811               348.5634                47.0300

                     67                     68                     69
                      A                      A                      A
 Frequencies --   1677.1304              1682.0791              1740.4821
 Red. masses --      5.7690                 4.2785                 3.5474
 Frc consts  --      9.5606                 7.1325                 6.3315
 IR Inten    --     84.6739                38.0965               472.0909

                     70                     71                     72
                      A                      A                      A
 Frequencies --   3228.0338              3236.2979              3246.9756
 Red. masses --      1.0913                 1.0936                 1.0928
 Frc consts  --      6.7000                 6.7488                 6.7879
 IR Inten    --      3.2635                 2.9647                 0.5067

                     73                     74                     75
                      A                      A                      A
 Frequencies --   3249.2639              3252.8514              3284.7860
 Red. masses --      1.0928                 1.0951                 1.0936
 Frc consts  --      6.7977                 6.8268                 6.9520
 IR Inten    --      0.2449                 0.2230                 0.9770

                     76                     77                     78
                      A                      A                      A
 Frequencies --   3297.7234              3575.4757              3608.7501
 Red. masses --      1.0936                 1.0789                 1.0784
 Frc consts  --      7.0068                 8.1261                 8.2744
 IR Inten    --      4.3240               141.1847               164.3726

 - Thermochemistry -
 -------------------
 Temperature   298.150 Kelvin.  Pressure   1.00000 Atm.
 Atom     1 has atomic number  6 and mass  12.00000

 Molecular mass:   313.97805 amu.
 Principal axes and moments of inertia in atomic units:
                           1         2         3
     Eigenvalues --  1510.47081********************
           X            1.00000  -0.00286   0.00011
           Y            0.00286   0.99977   0.02141
           Z           -0.00017  -0.02141   0.99977
 This molecule is an asymmetric top.
 Rotational symmetry number  1.
 Warning -- assumption of classical behavior for rotation
           may cause significant error
 Rotational temperatures (Kelvin)      0.05734     0.00357     0.00341
 Rotational constants (GHZ):           1.19482     0.07438     0.07104
 Zero-point vibrational energy     521741.4 (Joules/Mol)
                                  124.69920 (Kcal/Mol)
 Warning -- explicit consideration of  26 degrees of freedom as
           vibrations may cause significant error
 Vibrational temperatures:     19.44    29.98    57.83    80.95   103.53
          (Kelvin)            148.91   199.06   232.12   265.88   278.64
                              306.97   379.31   425.36   483.45   492.82
                              531.70   585.78   608.22   618.94   645.36
                              649.99   681.56   727.11   739.99   745.41
                              849.08   918.33   937.54   987.67  1003.01
                             1028.52  1069.23  1086.90  1183.69  1211.18
                             1213.28  1231.91  1252.30  1285.45  1358.93
                             1403.74  1418.03  1431.79  1478.15  1497.02
                             1574.38  1622.43  1651.91  1684.09  1695.31
                             1737.01  1815.32  1831.85  1865.85  1888.76
                             1913.55  1934.81  1962.00  2063.07  2087.14
                             2205.34  2226.55  2284.29  2299.45  2396.33
                             2406.46  2413.01  2420.13  2504.16  4644.41
                             4656.30  4671.67  4674.96  4680.12  4726.07
                             4744.68  5144.31  5192.18

 Zero-point correction=                           0.198721 (Hartree/Particle)
 Thermal correction to Energy=                    0.215627
 Thermal correction to Enthalpy=                  0.216571
 Thermal correction to Gibbs Free Energy=         0.150180
 Sum of electronic and zero-point Energies=          -2065.621619
 Sum of electronic and thermal Energies=             -2065.604713
 Sum of electronic and thermal Enthalpies=           -2065.603769
 Sum of electronic and thermal Free Energies=        -2065.670160

                     E (Thermal)             CV                S
                      KCal/Mol        Cal/Mol-Kelvin    Cal/Mol-Kelvin
 Total                  135.308             62.904            139.732
 Electronic               0.000              0.000              0.000
 Translational            0.889              2.981             43.129
 Rotational               0.889              2.981             35.186
 Vibrational            133.530             56.943             61.417
 Vibration     1          0.593              1.987              7.413
 Vibration     2          0.593              1.986              6.553
 Vibration     3          0.594              1.981              5.250
 Vibration     4          0.596              1.975              4.584
 Vibration     5          0.598              1.967              4.099
 Vibration     6          0.605              1.946              3.387
 Vibration     7          0.614              1.915              2.826
 Vibration     8          0.622              1.890              2.534
 Vibration     9          0.631              1.861              2.279
 Vibration    10          0.635              1.849              2.192
 Vibration    11          0.644              1.821              2.015
 Vibration    12          0.670              1.740              1.638
 Vibration    13          0.690              1.682              1.441
 Vibration    14          0.717              1.604              1.231
 Vibration    15          0.722              1.590              1.200
 Vibration    16          0.742              1.535              1.082
 Vibration    17          0.772              1.455              0.937
 Vibration    18          0.785              1.421              0.883
 Vibration    19          0.791              1.405              0.858
 Vibration    20          0.808              1.364              0.800
 Vibration    21          0.810              1.357              0.790
 Vibration    22          0.830              1.308              0.727
 Vibration    23          0.861              1.238              0.645
 Vibration    24          0.869              1.218              0.623
 Vibration    25          0.873              1.210              0.614
 Vibration    26          0.947              1.053              0.467

 Optimization completed.
    -- Stationary point found.
 Normal termination of Gaussian 09 at Tue Oct  9 03:07:22 2018.
