 Gaussian 09, Revision E.01,

 ----------------------------------------------------------------------
 # M062X/Gen 6D SCF=Tight INT(grid=ultrafine) OPT IOP(2/17=4) SCRF=(SMD
 ,Solvent=n-Pentadecane) maxdisk=2147483648
 ----------------------------------------------------------------------

 --------------------------------------------
 4SulfOxyMethyl.M062X_6-31pGd_opt_Pentadecane
 --------------------------------------------
 Symbolic Z-matrix:
 Charge =  0 Multiplicity = 1

 SCF Done:  E(RM062X) =  -1161.75998959     A.U. after   17 cycles
 SCF Done:  E(RM062X) =  -1161.80085680     A.U. after   15 cycles
 SCF Done:  E(RM062X) =  -1161.81609701     A.U. after   16 cycles
 SCF Done:  E(RM062X) =  -1161.81805899     A.U. after   16 cycles
 SCF Done:  E(RM062X) =  -1161.81926410     A.U. after   16 cycles
 SCF Done:  E(RM062X) =  -1161.82055868     A.U. after   17 cycles
 SCF Done:  E(RM062X) =  -1161.82076916     A.U. after   16 cycles
 SCF Done:  E(RM062X) =  -1161.82090941     A.U. after   15 cycles
 SCF Done:  E(RM062X) =  -1161.82091694     A.U. after   14 cycles
 SCF Done:  E(RM062X) =  -1161.82092742     A.U. after   13 cycles
 SCF Done:  E(RM062X) =  -1161.82116891     A.U. after   13 cycles
 SCF Done:  E(RM062X) =  -1161.82119582     A.U. after   13 cycles
 SCF Done:  E(RM062X) =  -1161.82120464     A.U. after   14 cycles
 SCF Done:  E(RM062X) =  -1161.82121714     A.U. after   13 cycles
 SCF Done:  E(RM062X) =  -1161.82121793     A.U. after   12 cycles
 SCF Done:  E(RM062X) =  -1161.82121786     A.U. after   10 cycles
 SCF Done:  E(RM062X) =  -1161.82121780     A.U. after   11 cycles
 SCF Done:  E(RM062X) =  -1161.82121764     A.U. after   11 cycles
 SCF Done:  E(RM062X) =  -1161.82121768     A.U. after   11 cycles
 Optimization completed.
    -- Stationary point found.
 Normal termination of Gaussian 09 at Fri Feb 22 17:39:35 2019.
 Gaussian 09:  ES64L-G09RevE.01 30-Nov-2015

 ----------------------------------------------------------------------
 # M062X/Gen 6D SCF=Tight INT(grid=ultrafine) SCRF=(SMD,Solvent=n-Penta
 decane) Freq=Noraman maxdisk=2147483648 geom=check guess=read IOP(2/17
 =4)
 ----------------------------------------------------------------------

 --------------------------------------------
 4SulfOxyMethyl.M062X_6-31pGd_opt_Pentadecane
 --------------------------------------------
 Structure from the checkpoint file:  "4SulfOxyMethyl.M062X_6-31pGd_opt_Pentadecane.chk"
 Charge =  0 Multiplicity = 1

                         Standard orientation:
 ---------------------------------------------------------------------
 Center     Atomic      Atomic             Coordinates (Angstroms)
 Number     Number       Type             X           Y           Z
 ---------------------------------------------------------------------
      1          6           0        7.545394   -0.349901   -0.097225
      2          6           0        6.266130    0.479593   -0.160213
      3          6           0        5.033883   -0.372684    0.114953
      4          7           0        3.827797    0.442559    0.055130
      5          6           0        2.599145   -0.155860   -0.004433
      6          8           0        2.450144   -1.362128   -0.130037
      7          7           0        1.544445    0.747703    0.056832
      8          6           0        0.177089    0.471241    0.064478
      9          6           0       -0.354364   -0.824308    0.172266
     10          6           0       -0.693454    1.572830   -0.014962
     11          6           0       -2.067136    1.394098    0.008977
     12          6           0       -2.581283    0.102825    0.112418
     13          6           0       -1.733458   -0.998037    0.198348
     14          1           0        8.425608    0.267143   -0.300496
     15          1           0        7.525290   -1.158756   -0.835759
     16          1           0        7.674752   -0.802631    0.892000
     17          1           0        6.163692    0.944849   -1.147952
     18          1           0        6.320203    1.294191    0.575080
     19          1           0        5.120403   -0.865413    1.093766
     20          1           0        4.937790   -1.160786   -0.636749
     21          1           0        3.890903    1.374427    0.448063
     22          1           0        1.783968    1.730510    0.005089
     23          1           0        0.306893   -1.676501    0.238979
     24          1           0       -0.283030    2.577199   -0.087146
     25          1           0       -2.738465    2.246755   -0.034955
     26         16           0       -4.340216   -0.139156    0.115414
     27          8           0       -4.970057    1.117721    0.531769
     28          8           0       -4.631775   -1.383528    0.832413
     29          1           0       -2.150679   -1.995549    0.304427
     30          6           0       -4.755804   -0.402444   -1.601800
     31          1           0       -4.473201    0.482965   -2.174533
     32          1           0       -5.837910   -0.554339   -1.638754
     33          1           0       -4.231805   -1.290039   -1.961412
 ---------------------------------------------------------------------

 SCF Done:  E(RM062X) =  -1161.82121768     A.U. after    2 cycles

 The electronic state is 1-A.
 Alpha  occ. eigenvalues --  -90.13991 -19.63407 -19.63368 -19.62215 -14.81438
 Alpha  occ. eigenvalues --  -14.79414 -10.69592 -10.62465 -10.58514 -10.58462
 Alpha  occ. eigenvalues --  -10.57978 -10.57887 -10.57708 -10.57262 -10.56298
 Alpha  occ. eigenvalues --  -10.55429 -10.54106  -8.45366  -6.37534  -6.37472
 Alpha  occ. eigenvalues --   -6.37436  -1.22359  -1.18850  -1.11621  -1.07249
 Alpha  occ. eigenvalues --   -1.03874  -0.97642  -0.89663  -0.88147  -0.86590
 Alpha  occ. eigenvalues --   -0.85114  -0.79036  -0.74661  -0.72792  -0.69275
 Alpha  occ. eigenvalues --   -0.68966  -0.66756  -0.64229  -0.62570  -0.59863
 Alpha  occ. eigenvalues --   -0.56515  -0.55869  -0.55171  -0.54458  -0.53319
 Alpha  occ. eigenvalues --   -0.52803  -0.52675  -0.51399  -0.50449  -0.49948
 Alpha  occ. eigenvalues --   -0.49361  -0.48408  -0.47185  -0.46825  -0.45391
 Alpha  occ. eigenvalues --   -0.43097  -0.42576  -0.41180  -0.40513  -0.40046
 Alpha  occ. eigenvalues --   -0.39219  -0.39012  -0.37088  -0.35936  -0.34996
 Alpha  occ. eigenvalues --   -0.33111  -0.32561  -0.28569
 Alpha virt. eigenvalues --   -0.00923  -0.00040   0.00431   0.01898   0.02868
 Alpha virt. eigenvalues --    0.03399   0.03544   0.03763   0.04466   0.04997
 Alpha virt. eigenvalues --    0.05242   0.05492   0.06336   0.07001   0.07060

 Mulliken charges:
               1
     1  C   -0.742769
     2  C   -0.322227
     3  C   -0.180684
     4  N   -0.597502
     5  C    0.829712
     6  O   -0.598676
     7  N   -0.672805
     8  C    0.109951
     9  C    0.818306
    10  C   -1.299127
    11  C    0.176849
    12  C   -1.259428
    13  C   -0.309752
    14  H    0.218404
    15  H    0.219517
    16  H    0.218166
    17  H    0.229172
    18  H    0.211183
    19  H    0.222139
    20  H    0.245526
    21  H    0.412123
    22  H    0.439789
    23  H    0.277307
    24  H    0.222012
    25  H    0.263899
    26  S    1.488869
    27  O   -0.508216
    28  O   -0.497967
    29  H    0.262137
    30  C   -0.729257
    31  H    0.278924
    32  H    0.291110
    33  H    0.283312
 Sum of Mulliken charges =  -0.00000

 Dipole moment (field-independent basis, Debye):
    X=              7.4514    Y=              4.2486    Z=             -3.3864  Tot=              9.2218
 Quadrupole moment (field-independent basis, Debye-Ang):
   XX=           -113.6892   YY=           -107.7556   ZZ=           -110.7179
   XY=             12.1476   XZ=             24.3129   YZ=              1.9558

  Exact polarizability: 281.065   3.105 182.397   3.804  -2.001 129.904
 Approx polarizability: 241.909   2.242 222.465  -0.577  -3.540 148.055

                      1                      2                      3
                      A                      A                      A
 Frequencies --     22.0189                29.0276                49.7454
 Red. masses --      4.8900                 3.0713                 3.2883
 Frc consts  --      0.0014                 0.0015                 0.0048
 IR Inten    --      2.2473                 7.2787                 2.9075

                      4                      5                      6
                      A                      A                      A
 Frequencies --     55.5970                62.9555                68.8226
 Red. masses --      4.0206                 4.3543                 2.8094
 Frc consts  --      0.0073                 0.0102                 0.0078
 IR Inten    --      1.4268                 3.1309                 4.2464

                      7                      8                      9
                      A                      A                      A
 Frequencies --    105.4339               126.7901               181.3533
 Red. masses --      4.3383                 5.3803                 3.7552
 Frc consts  --      0.0284                 0.0510                 0.0728
 IR Inten    --      4.5844                 7.3277                 4.2807

                     10                     11                     12
                      A                      A                      A
 Frequencies --    192.7570               205.1137               221.7953
 Red. masses --      4.5864                 3.9471                 2.5084
 Frc consts  --      0.1004                 0.0978                 0.0727
 IR Inten    --      1.5665                 2.7633                 4.7769

                     13                     14                     15
                      A                      A                      A
 Frequencies --    233.5314               238.3723               305.6931
 Red. masses --      1.2195                 1.2146                 5.0975
 Frc consts  --      0.0392                 0.0407                 0.2807
 IR Inten    --      2.1186                 0.6192                 0.2844

                     16                     17                     18
                      A                      A                      A
 Frequencies --    329.5751               334.5621               347.2480
 Red. masses --      5.0819                 3.4509                 3.8371
 Frc consts  --      0.3252                 0.2276                 0.2726
 IR Inten    --      2.1188                31.3526                28.4044

                     19                     20                     21
                      A                      A                      A
 Frequencies --    364.5657               382.5692               420.6821
 Red. masses --      2.8731                 2.0554                 3.0259
 Frc consts  --      0.2250                 0.1772                 0.3155
 IR Inten    --     49.3429                25.2345                 0.1824

                     22                     23                     24
                      A                      A                      A
 Frequencies --    437.4451               480.1569               485.5546
 Red. masses --      5.0951                 5.4020                 4.0631
 Frc consts  --      0.5744                 0.7338                 0.5644
 IR Inten    --      0.6918                20.5751                53.0816

                     25                     26                     27
                      A                      A                      A
 Frequencies --    533.8611               537.4063               551.8628
 Red. masses --      1.3442                 2.5814                 4.2729
 Frc consts  --      0.2257                 0.4393                 0.7667
 IR Inten    --    203.3921                 3.3936                73.2995

                     28                     29                     30
                      A                      A                      A
 Frequencies --    638.5531               693.8304               726.4447
 Red. masses --      6.9239                 5.7310                 3.6216
 Frc consts  --      1.6634                 1.6255                 1.1260
 IR Inten    --      0.9652                22.4328                 6.9472

                     31                     32                     33
                      A                      A                      A
 Frequencies --    754.2570               765.8760               778.9806
 Red. masses --      1.6698                 2.2922                 5.5796
 Frc consts  --      0.5597                 0.7922                 1.9948
 IR Inten    --      9.1353                 3.8307               116.5007

                     34                     35                     36
                      A                      A                      A
 Frequencies --    792.8565               849.5750               870.2050
 Red. masses --      5.4223                 1.3884                 1.8250
 Frc consts  --      2.0083                 0.5904                 0.8143
 IR Inten    --     39.7981                20.9856                23.4069

                     37                     38                     39
                      A                      A                      A
 Frequencies --    873.2932               900.5082               933.3838
 Red. masses --      3.0804                 1.1874                 1.6812
 Frc consts  --      1.3841                 0.5673                 0.8630
 IR Inten    --     14.4667                 2.8577                 4.4142

                     40                     41                     42
                      A                      A                      A
 Frequencies --    987.7659               994.0829               996.2210
 Red. masses --      1.3359                 1.3569                 1.3835
 Frc consts  --      0.7679                 0.7900                 0.8090
 IR Inten    --     26.1832                18.8719                45.2433

                     43                     44                     45
                      A                      A                      A
 Frequencies --   1010.7893              1028.4358              1046.5330
 Red. masses --      1.3358                 3.4936                 4.1588
 Frc consts  --      0.8041                 2.1771                 2.6836
 IR Inten    --      0.6755                 6.2394                 2.9432

                     46                     47                     48
                      A                      A                      A
 Frequencies --   1081.4775              1115.1982              1144.8286
 Red. masses --      2.5758                 4.2423                 2.2143
 Frc consts  --      1.7750                 3.1085                 1.7099
 IR Inten    --      3.2021                78.5995                11.8378

                     49                     50                     51
                      A                      A                      A
 Frequencies --   1156.9972              1161.5953              1166.3796
 Red. masses --      2.3304                 2.1648                 2.1506
 Frc consts  --      1.8380                 1.7210                 1.7238
 IR Inten    --    311.1805               133.5343                81.0497

                     52                     53                     54
                      A                      A                      A
 Frequencies --   1182.0139              1218.5879              1249.8380
 Red. masses --      1.8466                 1.2603                 1.6297
 Frc consts  --      1.5201                 1.1027                 1.4999
 IR Inten    --      3.3047                14.1926               354.9179

                     55                     56                     57
                      A                      A                      A
 Frequencies --   1280.5053              1305.4908              1320.3374
 Red. masses --      1.2941                 2.6291                 9.9896
 Frc consts  --      1.2502                 2.6401                10.2605
 IR Inten    --    134.9824                10.5101               235.6678

                     58                     59                     60
                      A                      A                      A
 Frequencies --   1326.1937              1336.5841              1347.1439
 Red. masses --      1.1551                 1.4093                 1.3804
 Frc consts  --      1.1969                 1.4834                 1.4760
 IR Inten    --     17.9636                21.3658                 2.2058

                     61                     62                     63
                      A                      A                      A
 Frequencies --   1367.8824              1377.2471              1424.8228
 Red. masses --      4.9864                 1.2354                 1.5060
 Frc consts  --      5.4971                 1.3807                 1.8014
 IR Inten    --    235.4961                19.7123                 0.8768

                     64                     65                     66
                      A                      A                      A
 Frequencies --   1436.0273              1454.3009              1471.2626
 Red. masses --      1.3404                 3.0099                 1.0476
 Frc consts  --      1.6286                 3.7507                 1.3361
 IR Inten    --      1.7453                77.4992                 3.3264

                     67                     68                     69
                      A                      A                      A
 Frequencies --   1474.3976              1507.9385              1519.3072
 Red. masses --      1.0493                 1.0610                 1.0410
 Frc consts  --      1.3440                 1.4215                 1.4158
 IR Inten    --      9.1533                 9.0043                14.3997

                     70                     71                     72
                      A                      A                      A
 Frequencies --   1522.0540              1534.2279              1548.4893
 Red. masses --      1.0735                 1.0984                 1.8222
 Frc consts  --      1.4653                 1.5234                 2.5744
 IR Inten    --      3.7435                 7.1345               442.5044

                     73                     74                     75
                      A                      A                      A
 Frequencies --   1561.9329              1586.5954              1668.3514
 Red. masses --      2.3751                 2.2873                 4.8906
 Frc consts  --      3.4140                 3.3923                 8.0202
 IR Inten    --     38.2081              1067.5726               132.9783

                     76                     77                     78
                      A                      A                      A
 Frequencies --   1681.6403              1806.6066              3058.5043
 Red. masses --      5.5873                 8.0698                 1.0695
 Frc consts  --      9.3094                15.5182                 5.8947
 IR Inten    --     66.3181               370.5976                29.6321

                     79                     80                     81
                      A                      A                      A
 Frequencies --   3063.4376              3079.4000              3105.1877
 Red. masses --      1.0650                 1.0366                 1.0301
 Frc consts  --      5.8886                 5.7915                 5.8520
 IR Inten    --     43.5126                34.4686                 0.2560

                     82                     83                     84
                      A                      A                      A
 Frequencies --   3107.4069              3146.1791              3152.3985
 Red. masses --      1.0980                 1.0991                 1.0995
 Frc consts  --      6.2469                 6.4099                 6.4377
 IR Inten    --     18.8764                 6.6429                56.1142

                     85                     86                     87
                      A                      A                      A
 Frequencies --   3158.5447              3208.1787              3216.8274
 Red. masses --      1.1019                 1.1063                 1.0901
 Frc consts  --      6.4772                 6.7089                 6.6460
 IR Inten    --     33.2823                 0.2224                 9.5743

                     88                     89                     90
                      A                      A                      A
 Frequencies --   3220.2293              3238.5410              3244.6136
 Red. masses --      1.1083                 1.0917                 1.0940
 Frc consts  --      6.7715                 6.7461                 6.7858
 IR Inten    --      0.0631                 0.8195                 2.5777

                     91                     92                     93
                      A                      A                      A
 Frequencies --   3297.3265              3619.3196              3630.2162
 Red. masses --      1.0934                 1.0781                 1.0774
 Frc consts  --      7.0042                 8.3204                 8.3659
 IR Inten    --      9.4760                19.5152                78.2087

 - Thermochemistry -
 -------------------
 Temperature   298.150 Kelvin.  Pressure   1.00000 Atm.
 Atom     1 has atomic number  6 and mass  12.00000

 Molecular mass:   256.08816 amu.
 Principal axes and moments of inertia in atomic units:
                           1         2         3
     Eigenvalues --   975.45258********************
           X            0.99998   0.00077   0.00624
           Y           -0.00083   0.99996   0.00913
           Z           -0.00624  -0.00914   0.99994
 This molecule is an asymmetric top.
 Rotational symmetry number  1.
 Warning -- assumption of classical behavior for rotation
           may cause significant error
 Rotational temperatures (Kelvin)      0.08879     0.00585     0.00566
 Rotational constants (GHZ):           1.85016     0.12198     0.11791
 Zero-point vibrational energy     710753.2 (Joules/Mol)
                                  169.87409 (Kcal/Mol)
 Warning -- explicit consideration of  27 degrees of freedom as
           vibrations may cause significant error
 Vibrational temperatures:     31.68    41.76    71.57    79.99    90.58
          (Kelvin)             99.02   151.70   182.42   260.93   277.33
                              295.11   319.11   336.00   342.96   439.82
                              474.18   481.36   499.61   524.53   550.43
                              605.27   629.39   690.84   698.60   768.11
                              773.21   794.01   918.73   998.27  1045.19
                             1085.21  1101.92  1120.78  1140.74  1222.35
                             1252.03  1256.47  1295.63  1342.93  1421.17
                             1430.26  1433.34  1454.30  1479.69  1505.73
                             1556.00  1604.52  1647.15  1664.66  1671.27
                             1678.16  1700.65  1753.27  1798.24  1842.36
                             1878.31  1899.67  1908.09  1923.04  1938.24
                             1968.08  1981.55  2050.00  2066.12  2092.41
                             2116.82  2121.33  2169.58  2185.94  2189.89
                             2207.41  2227.93  2247.27  2282.75  2400.38
                             2419.50  2599.30  4400.50  4407.60  4430.56
                             4467.67  4470.86  4526.64  4535.59  4544.44
                             4615.85  4628.29  4633.19  4659.53  4668.27
                             4744.11  5207.39  5223.06

 Zero-point correction=                           0.270712 (Hartree/Particle)
 Thermal correction to Energy=                    0.288609
 Thermal correction to Enthalpy=                  0.289554
 Thermal correction to Gibbs Free Energy=         0.222490
 Sum of electronic and zero-point Energies=          -1161.550506
 Sum of electronic and thermal Energies=             -1161.532608
 Sum of electronic and thermal Enthalpies=           -1161.531664
 Sum of electronic and thermal Free Energies=        -1161.598728

                     E (Thermal)             CV                S
                      KCal/Mol        Cal/Mol-Kelvin    Cal/Mol-Kelvin
 Total                  181.105             65.333            141.147
 Electronic               0.000              0.000              0.000
 Translational            0.889              2.981             42.521
 Rotational               0.889              2.981             33.757
 Vibrational            179.328             59.372             64.869
 Vibration     1          0.593              1.985              6.443
 Vibration     2          0.593              1.984              5.895
 Vibration     3          0.595              1.978              4.827
 Vibration     4          0.596              1.975              4.608
 Vibration     5          0.597              1.972              4.362
 Vibration     6          0.598              1.969              4.187
 Vibration     7          0.605              1.945              3.351
 Vibration     8          0.611              1.926              2.994
 Vibration     9          0.630              1.865              2.314
 Vibration    10          0.635              1.850              2.201
 Vibration    11          0.640              1.833              2.087
 Vibration    12          0.648              1.808              1.944
 Vibration    13          0.654              1.790              1.852
 Vibration    14          0.656              1.782              1.815
 Vibration    15          0.696              1.663              1.386
 Vibration    16          0.712              1.616              1.262
 Vibration    17          0.716              1.606              1.238
 Vibration    18          0.725              1.581              1.179
 Vibration    19          0.738              1.545              1.103
 Vibration    20          0.752              1.507              1.029
 Vibration    21          0.783              1.425              0.890
 Vibration    22          0.798              1.389              0.835
 Vibration    23          0.837              1.294              0.710
 Vibration    24          0.842              1.282              0.695
 Vibration    25          0.889              1.175              0.579
 Vibration    26          0.892              1.167              0.571
 Vibration    27          0.907              1.136              0.540

 Optimization completed.
    -- Stationary point found.
 Normal termination of Gaussian 09 at Fri Feb 22 18:27:20 2019.
