 Gaussian 09, Revision E.01,

 ----------------------------------------------------------------------
 # M062X/Gen 6D SCF=Tight INT(grid=ultrafine) OPT IOP(2/17=4) SCRF=(SMD
 ,Solvent=n-Pentadecane) maxdisk=2684354560
 ----------------------------------------------------------------------

 ---------------------------------------------------
 4SulfOxyMethyl_C2_EtO.M062X_6-31pGd_opt_Pentadecane
 ---------------------------------------------------
 Symbolic Z-matrix:
 Charge = -1 Multiplicity = 1

 SCF Done:  E(RM062X) =  -1429.55317995     A.U. after   16 cycles
 SCF Done:  E(RM062X) =  -1429.60647798     A.U. after   14 cycles
 SCF Done:  E(RM062X) =  -1429.63793330     A.U. after   15 cycles
 SCF Done:  E(RM062X) =  -1429.64295670     A.U. after   13 cycles
 SCF Done:  E(RM062X) =  -1429.64388466     A.U. after   13 cycles
 SCF Done:  E(RM062X) =  -1429.64461223     A.U. after   13 cycles
 SCF Done:  E(RM062X) =  -1429.64397774     A.U. after   16 cycles
 SCF Done:  E(RM062X) =  -1429.64447877     A.U. after   15 cycles
 SCF Done:  E(RM062X) =  -1429.64491608     A.U. after   12 cycles
 SCF Done:  E(RM062X) =  -1429.64580926     A.U. after   14 cycles
 SCF Done:  E(RM062X) =  -1429.64872292     A.U. after   15 cycles
 SCF Done:  E(RM062X) =  -1429.65170937     A.U. after    6 cycles
 SCF Done:  E(RM062X) =  -1429.65168406     A.U. after   12 cycles
 SCF Done:  E(RM062X) =  -1429.65170599     A.U. after   12 cycles
 SCF Done:  E(RM062X) =  -1429.65170949     A.U. after   12 cycles
 SCF Done:  E(RM062X) =  -1429.65170961     A.U. after    9 cycles
 SCF Done:  E(RM062X) =  -1429.65170968     A.U. after    9 cycles
 SCF Done:  E(RM062X) =  -1429.65170967     A.U. after    9 cycles
 Optimization completed.
    -- Stationary point found.
 Normal termination of Gaussian 09 at Tue Feb 19 15:04:55 2019.
 Gaussian 09:  ES64L-G09RevE.01 30-Nov-2015

 ----------------------------------------------------------------------
 # M062X/Gen 6D SCF=Tight INT(grid=ultrafine) OPT IOP(2/17=4) SCRF=(SMD
 ,Solvent=n-Pentadecane) Freq=Noraman maxdisk=2684354560 geom=check gue
 ss=read IOP(2/17=4)
 ----------------------------------------------------------------------

 ---------------------------------------------------
 4SulfOxyMethyl_C2_EtO.M062X_6-31pGd_opt_Pentadecane
 ---------------------------------------------------
 Structure from the checkpoint file:  "4SulfOxyMethyl_C2_EtO.M062X_6-31pGd_opt_Pentadecane.chk"
 Charge = -1 Multiplicity = 1

 SCF Done:  E(RM062X) =  -1429.65170967     A.U. after    1 cycles
 Optimization completed.
    -- Stationary point found.
 Normal termination of Gaussian 09 at Tue Feb 19 15:06:01 2019.

 ----------------------------------------------------------------------
 #N Geom=AllCheck Guess=TCheck SCRF=Check Test GenChk RM062X/ChkBas Fre
 q
 ----------------------------------------------------------------------

 Structure from the checkpoint file:  "4SulfOxyMethyl_C2_EtO.M062X_6-31pGd_opt_Pentadecane.chk"
 ---------------------------------------------------
 4SulfOxyMethyl_C2_EtO.M062X_6-31pGd_opt_Pentadecane
 ---------------------------------------------------
 Charge = -1 Multiplicity = 1

                         Standard orientation:
 ---------------------------------------------------------------------
 Center     Atomic      Atomic             Coordinates (Angstroms)
 Number     Number       Type             X           Y           Z
 ---------------------------------------------------------------------
      1          6           0        6.467817   -2.707358   -0.119327
      2          6           0        5.368488   -1.649142   -0.105655
      3          6           0        3.984449   -2.279923   -0.008495
      4          7           0        2.968308   -1.248446    0.003074
      5          6           0        1.659005   -1.582426    0.025941
      6          8           0        1.259127   -2.750546    0.022653
      7          7           0        0.816980   -0.476424    0.048630
      8          6           0       -0.559587   -0.469049    0.083938
      9          6           0       -1.371085   -1.623035    0.120936
     10          6           0       -1.179652    0.803277    0.087438
     11          6           0       -2.556713    0.920418    0.116933
     12          6           0       -3.345681   -0.233770    0.146780
     13          6           0       -2.753938   -1.495950    0.148859
     14          1           0        7.459547   -2.248206   -0.186288
     15          1           0        6.354239   -3.384608   -0.974184
     16          1           0        6.442276   -3.315743    0.792499
     17          1           0        5.419421   -1.035626   -1.013141
     18          1           0        5.511931   -0.962188    0.736787
     19          1           0        3.912271   -2.894262    0.900820
     20          1           0        3.816179   -2.956897   -0.857084
     21          1           0        3.268786   -0.257134    0.040239
     22          1           0        1.263121    0.464873    0.022619
     23          1           0       -0.906065   -2.598798    0.129941
     24          1           0       -0.546769    1.686988    0.071290
     25          1           0       -3.025929    1.900264    0.133210
     26         16           0       -5.102668   -0.090120    0.103107
     27          8           0       -5.488554    1.212066    0.662449
     28          8           0       -5.697093   -1.317685    0.648321
     29          1           0       -3.379610   -2.383573    0.188674
     30          6           0       -5.509108   -0.046497   -1.638945
     31          1           0       -5.021085    0.817862   -2.093443
     32          1           0       -6.596556    0.045352   -1.705595
     33          1           0       -5.171312   -0.975115   -2.103027
     34          8           0        3.903777    1.409895    0.091381
     35          8           0        1.782235    2.124026   -0.038863
     36          6           0        3.028454    2.310930    0.017616
     37          6           0        3.541110    3.757651   -0.011721
     38          6           0        2.454010    4.823708   -0.035513
     39          1           0        4.192828    3.846792   -0.890199
     40          1           0        4.196104    3.885816    0.858655
     41          1           0        1.813000    4.709185   -0.914621
     42          1           0        2.890860    5.829399   -0.055602
     43          1           0        1.811093    4.746589    0.846564
 ---------------------------------------------------------------------

 SCF Done:  E(RM062X) =  -1429.65170967     A.U. after    1 cycles

 The electronic state is 1-A.
 Alpha  occ. eigenvalues --  -90.09743 -19.59250 -19.59223 -19.54607 -19.52806
 Alpha  occ. eigenvalues --  -19.52298 -14.72281 -14.70380 -10.61534 -10.57369
 Alpha  occ. eigenvalues --  -10.55970 -10.54025 -10.53112 -10.52375 -10.52353
 Alpha  occ. eigenvalues --  -10.52055 -10.50512 -10.50261 -10.49362 -10.49251
 Alpha  occ. eigenvalues --  -10.48059 -10.47802  -8.41117  -6.33292  -6.33222
 Alpha  occ. eigenvalues --   -6.33177  -1.18068  -1.10718  -1.08874  -1.07317
 Alpha  occ. eigenvalues --   -0.99405  -0.98918  -0.95924  -0.91563  -0.84123
 Alpha  occ. eigenvalues --   -0.82841  -0.80699  -0.80120  -0.79535  -0.73132
 Alpha  occ. eigenvalues --   -0.69091  -0.66709  -0.66277  -0.63453  -0.62164
 Alpha  occ. eigenvalues --   -0.60182  -0.56481  -0.56258  -0.54621  -0.51792
 Alpha  occ. eigenvalues --   -0.51540  -0.50460  -0.49940  -0.48226  -0.47443
 Alpha  occ. eigenvalues --   -0.47055  -0.46719  -0.46099  -0.45898  -0.45747
 Alpha  occ. eigenvalues --   -0.45362  -0.44995  -0.43713  -0.43262  -0.41910
 Alpha  occ. eigenvalues --   -0.41490  -0.40857  -0.39514  -0.39342  -0.38693
 Alpha  occ. eigenvalues --   -0.37282  -0.36376  -0.36024  -0.35698  -0.35016
 Alpha  occ. eigenvalues --   -0.34943  -0.34613  -0.33952  -0.32912  -0.32531
 Alpha  occ. eigenvalues --   -0.31085  -0.28078  -0.27064  -0.25729  -0.25108
 Alpha  occ. eigenvalues --   -0.25006  -0.24481  -0.21168
 Alpha virt. eigenvalues --    0.04479   0.05356   0.06184   0.06731   0.07021
 Alpha virt. eigenvalues --    0.07520   0.07871   0.08218   0.08453   0.08931
 Alpha virt. eigenvalues --    0.09047   0.09617   0.09871   0.10528   0.10611

 Mulliken charges:
               1
     1  C   -0.808646
     2  C   -0.344932
     3  C   -0.177325
     4  N   -0.794861
     5  C    0.840347
     6  O   -0.626656
     7  N   -0.675721
     8  C    0.070983
     9  C   -0.302670
    10  C   -0.435421
    11  C    0.091259
    12  C   -0.768029
    13  C   -0.416770
    14  H    0.208284
    15  H    0.206856
    16  H    0.208029
    17  H    0.234721
    18  H    0.240121
    19  H    0.216376
    20  H    0.218227
    21  H    0.526837
    22  H    0.516021
    23  H    0.274386
    24  H    0.279050
    25  H    0.248244
    26  S    1.518191
    27  O   -0.522098
    28  O   -0.537321
    29  H    0.246227
    30  C   -0.740780
    31  H    0.277850
    32  H    0.276691
    33  H    0.275206
    34  O   -0.650795
    35  O   -0.692580
    36  C    0.686002
    37  C   -0.500121
    38  C   -0.720506
    39  H    0.217158
    40  H    0.217529
    41  H    0.217045
    42  H    0.186568
    43  H    0.217026
 Sum of Mulliken charges =  -1.00000

 Dipole moment (field-independent basis, Debye):
    X=             -0.8480    Y=             -0.2537    Z=             -4.2251  Tot=              4.3168
 Quadrupole moment (field-independent basis, Debye-Ang):
   XX=           -213.2858   YY=           -168.9715   ZZ=           -143.6225
   XY=             -7.2291   XZ=             23.5880   YZ=              0.0994

  Exact polarizability: 358.173 -12.758 254.797   2.966  -1.303 166.544
 Approx polarizability: 317.776  -5.492 274.855  -1.482  -0.933 192.503

                      1                      2                      3
                      A                      A                      A
 Frequencies --     21.1968                22.9505                31.7874
 Red. masses --      5.3284                 5.2850                 2.9611
 Frc consts  --      0.0014                 0.0016                 0.0018
 IR Inten    --      2.0637                 1.9366                 2.9288

                      4                      5                      6
                      A                      A                      A
 Frequencies --     41.5037                48.6178                54.7837
 Red. masses --      3.4867                 5.1104                 4.2079
 Frc consts  --      0.0035                 0.0071                 0.0074
 IR Inten    --      0.1025                 2.1512                 0.6868

                      7                      8                      9
                      A                      A                      A
 Frequencies --     62.0033                64.4857                75.7084
 Red. masses --      4.4802                 3.0465                 3.8133
 Frc consts  --      0.0101                 0.0075                 0.0129
 IR Inten    --      2.6297                 3.1172                 0.9524

                     10                     11                     12
                      A                      A                      A
 Frequencies --     77.6211                83.4686                96.9922
 Red. masses --      2.2875                 4.5233                 5.3973
 Frc consts  --      0.0081                 0.0186                 0.0299
 IR Inten    --      2.0071                 5.6072                 7.6809

                     13                     14                     15
                      A                      A                      A
 Frequencies --    122.1972               131.4809               171.4126
 Red. masses --      4.8007                 6.4596                 3.0986
 Frc consts  --      0.0422                 0.0658                 0.0536
 IR Inten    --      3.9530                15.9323                 5.8049

                     16                     17                     18
                      A                      A                      A
 Frequencies --    177.8242               191.2750               215.5907
 Red. masses --      5.3771                 5.9041                 3.8427
 Frc consts  --      0.1002                 0.1273                 0.1052
 IR Inten    --     27.8458                 1.8388                 0.6235

                     19                     20                     21
                      A                      A                      A
 Frequencies --    224.9888               237.7250               238.5555
 Red. masses --      2.3720                 1.3492                 1.1868
 Frc consts  --      0.0707                 0.0449                 0.0398
 IR Inten    --      5.2849                 2.2541                 1.1615

                     22                     23                     24
                      A                      A                      A
 Frequencies --    241.5190               300.6605               311.4901
 Red. masses --      1.1506                 4.1865                 4.7506
 Frc consts  --      0.0395                 0.2230                 0.2716
 IR Inten    --      0.0722                16.2516                 1.3762

                     25                     26                     27
                      A                      A                      A
 Frequencies --    330.5011               343.8197               347.6875
 Red. masses --      5.0297                 3.9997                 5.5204
 Frc consts  --      0.3237                 0.2786                 0.3932
 IR Inten    --      5.2748                11.1621                 8.4176

                     28                     29                     30
                      A                      A                      A
 Frequencies --    372.4861               426.3752               437.6204
 Red. masses --      7.1454                 3.1255                 5.1667
 Frc consts  --      0.5841                 0.3348                 0.5830
 IR Inten    --     26.8581                 0.0314                 1.3357

                     31                     32                     33
                      A                      A                      A
 Frequencies --    481.4337               483.8512               520.0769
 Red. masses --      4.7824                 6.2711                 5.6344
 Frc consts  --      0.6531                 0.8650                 0.8979
 IR Inten    --     45.1363                17.8496                20.7649

                     34                     35                     36
                      A                      A                      A
 Frequencies --    537.4436               554.9370               585.6735
 Red. masses --      3.5587                 4.7157                 1.9809
 Frc consts  --      0.6056                 0.8556                 0.4003
 IR Inten    --     52.5614                74.0867                 1.2707

                     37                     38                     39
                      A                      A                      A
 Frequencies --    636.4717               658.4195               692.8545
 Red. masses --      7.0655                 4.6233                 6.0167
 Frc consts  --      1.6864                 1.1809                 1.7017
 IR Inten    --      0.9815                56.5002                16.4287

                     40                     41                     42
                      A                      A                      A
 Frequencies --    731.2223               748.7893               766.5097
 Red. masses --      3.5340                 1.1648                 2.7680
 Frc consts  --      1.1133                 0.3848                 0.9582
 IR Inten    --     12.3427                10.5846                43.4744

                     43                     44                     45
                      A                      A                      A
 Frequencies --    775.8910               787.7400               811.7704
 Red. masses --      6.3548                 6.1754                 1.3575
 Frc consts  --      2.2540                 2.2578                 0.5271
 IR Inten    --     55.5185                99.1199                 4.3061

                     46                     47                     48
                      A                      A                      A
 Frequencies --    825.3441               862.3621               872.1739
 Red. masses --      1.4380                 1.2425                 4.9053
 Frc consts  --      0.5771                 0.5444                 2.1985
 IR Inten    --     11.5640                 4.6481                33.4122

                     49                     50                     51
                      A                      A                      A
 Frequencies --    876.9725               892.0417               901.1472
 Red. masses --      1.6529                 3.9184                 1.1635
 Frc consts  --      0.7490                 1.8371                 0.5567
 IR Inten    --     39.0350                28.9898                 5.6470

                     52                     53                     54
                      A                      A                      A
 Frequencies --    930.0034               958.3081               991.2610
 Red. masses --      1.7125                 1.0866                 1.3731
 Frc consts  --      0.8727                 0.5879                 0.7950
 IR Inten    --      4.8024               102.0341                66.3257

                     55                     56                     57
                      A                      A                      A
 Frequencies --    992.9320              1002.1890              1014.7752
 Red. masses --      1.3639                 1.3011                 1.3226
 Frc consts  --      0.7922                 0.7700                 0.8025
 IR Inten    --     52.3327                 8.9923                 2.3400

                     58                     59                     60
                      A                      A                      A
 Frequencies --   1024.1445              1026.4626              1051.3894
 Red. masses --      3.5801                 1.6801                 4.1060
 Frc consts  --      2.2124                 1.0430                 2.6742
 IR Inten    --     28.0601                 8.6347                21.7210

                     61                     62                     63
                      A                      A                      A
 Frequencies --   1083.8773              1108.7780              1109.9126
 Red. masses --      2.6347                 4.3513                 1.7635
 Frc consts  --      1.8236                 3.1518                 1.2800
 IR Inten    --      4.2115                78.6258                 1.2801

                     64                     65                     66
                      A                      A                      A
 Frequencies --   1114.4537              1149.9878              1151.9508
 Red. masses --      2.3662                 3.7453                 1.7005
 Frc consts  --      1.7315                 2.9183                 1.3295
 IR Inten    --      8.3320               704.9729                38.0485

                     67                     68                     69
                      A                      A                      A
 Frequencies --   1162.8572              1182.7314              1191.1354
 Red. masses --      1.6923                 1.6237                 4.0242
 Frc consts  --      1.3483                 1.3382                 3.3640
 IR Inten    --     16.7486                 0.8772                 1.8413

                     70                     71                     72
                      A                      A                      A
 Frequencies --   1218.7239              1277.8054              1289.7148
 Red. masses --      1.2664                 1.1911                 1.1845
 Frc consts  --      1.1082                 1.1459                 1.1609
 IR Inten    --      3.4158                 1.0618                 0.0776

                     73                     74                     75
                      A                      A                      A
 Frequencies --   1301.2751              1308.5911              1327.5967
 Red. masses --      4.7642                 2.3912                 1.3060
 Frc consts  --      4.7531                 2.4126                 1.3562
 IR Inten    --    330.5311               388.1737                15.0121

                     76                     77                     78
                      A                      A                      A
 Frequencies --   1330.9977              1338.5939              1339.2343
 Red. masses --      1.3646                 1.7341                 1.6917
 Frc consts  --      1.4244                 1.8308                 1.7877
 IR Inten    --     23.1820                23.9044                32.9500

                     79                     80                     81
                      A                      A                      A
 Frequencies --   1368.6939              1373.8591              1390.1098
 Red. masses --      2.1698                 1.2383                 3.8156
 Frc consts  --      2.3948                 1.3771                 4.3442
 IR Inten    --    300.2155                24.2059               373.9999

                     82                     83                     84
                      A                      A                      A
 Frequencies --   1426.0558              1426.6875              1435.4192
 Red. masses --      1.3486                 1.3206                 1.6045
 Frc consts  --      1.6158                 1.5837                 1.9478
 IR Inten    --      7.2104                33.9494                11.1728

                     85                     86                     87
                      A                      A                      A
 Frequencies --   1466.9591              1473.6636              1473.8483
 Red. masses --      3.3327                 1.1007                 2.4654
 Frc consts  --      4.2256                 1.4084                 3.1553
 IR Inten    --     15.3652                 5.5322               373.0990

                     88                     89                     90
                      A                      A                      A
 Frequencies --   1475.0921              1486.3306              1503.3802
 Red. masses --      1.0484                 1.3860                 1.0744
 Frc consts  --      1.3441                 1.8040                 1.4307
 IR Inten    --      2.9509                68.3574                10.7988

                     91                     92                     93
                      A                      A                      A
 Frequencies --   1512.3055              1519.4609              1523.9631
 Red. masses --      1.0413                 1.0402                 1.0697
 Frc consts  --      1.4032                 1.4149                 1.4638
 IR Inten    --      7.8814                 8.7410                14.5603

                     94                     95                     96
                      A                      A                      A
 Frequencies --   1524.5706              1539.6084              1558.5268
 Red. masses --      1.0960                 1.0875                 2.6318
 Frc consts  --      1.5009                 1.5188                 3.7665
 IR Inten    --     45.8307                17.3776               252.8729

                     97                     98                     99
                      A                      A                      A
 Frequencies --   1610.5162              1635.5776              1666.5743
 Red. masses --      3.1250                 2.4594                 6.2331
 Frc consts  --      4.7757                 3.8764                10.2001
 IR Inten    --    213.9251                42.9567               953.9373

                    100                    101                    102
                      A                      A                      A
 Frequencies --   1681.9326              1709.8605              1783.3959
 Red. masses --      2.7301                 3.2183                 2.9387
 Frc consts  --      4.5504                 5.5438                 5.5068
 IR Inten    --    381.9982               700.9674               451.5706

                    103                    104                    105
                      A                      A                      A
 Frequencies --   3045.0137              3064.7894              3068.3072
 Red. masses --      1.0611                 1.0950                 1.0369
 Frc consts  --      5.7967                 6.0598                 5.7514
 IR Inten    --     78.2786              1085.9552                50.9378

                    106                    107                    108
                      A                      A                      A
 Frequencies --   3072.3175              3074.9080              3078.7096
 Red. masses --      1.0495                 1.1016                 1.0542
 Frc consts  --      5.8367                 6.1367                 5.8872
 IR Inten    --     78.9869                49.9270                 3.5550

                    109                    110                    111
                      A                      A                      A
 Frequencies --   3084.5160              3103.5046              3110.9063
 Red. masses --      1.0607                 1.0301                 1.1008
 Frc consts  --      5.9458                 5.8456                 6.2767
 IR Inten    --     29.7478                 0.3153                15.1851

                    112                    113                    114
                      A                      A                      A
 Frequencies --   3118.2359              3140.4832              3142.4848
 Red. masses --      1.1031                 1.1038                 1.0976
 Frc consts  --      6.3194                 6.4143                 6.3861
 IR Inten    --      1.2179                78.2812                48.9975

                    115                    116                    117
                      A                      A                      A
 Frequencies --   3144.8294              3163.1182              3186.5512
 Red. masses --      1.1012                 1.1027                 1.0920
 Frc consts  --      6.4169                 6.5002                 6.5332
 IR Inten    --     35.8490                42.3493              1911.0859

                    118                    119                    120
                      A                      A                      A
 Frequencies --   3206.4089              3218.0142              3227.0661
 Red. masses --      1.1063                 1.1080                 1.0894
 Frc consts  --      6.7013                 6.7601                 6.6844
 IR Inten    --      0.2749                 0.0037                28.7113

                    121                    122                    123
                      A                      A                      A
 Frequencies --   3235.2122              3239.0004              3300.2286
 Red. masses --      1.0908                 1.0957                 1.0919
 Frc consts  --      6.7268                 6.7728                 7.0070
 IR Inten    --      0.3534                 6.3588                 7.8088

 - Thermochemistry -
 -------------------
 Temperature   298.150 Kelvin.  Pressure   1.00000 Atm.
 Atom     1 has atomic number  6 and mass  12.00000

 Molecular mass:   329.11712 amu.
 Principal axes and moments of inertia in atomic units:
                           1         2         3
     Eigenvalues --  4826.35402********************
           X            0.99996  -0.00621   0.00562
           Y            0.00621   0.99998   0.00023
           Z           -0.00562  -0.00020   0.99998
 This molecule is an asymmetric top.
 Rotational symmetry number  1.
 Warning -- assumption of classical behavior for rotation
           may cause significant error
 Rotational temperatures (Kelvin)      0.01795     0.00497     0.00398
 Rotational constants (GHZ):           0.37393     0.10366     0.08296
 Zero-point vibrational energy     921591.9 (Joules/Mol)
                                  220.26575 (Kcal/Mol)
 Warning -- explicit consideration of  36 degrees of freedom as
           vibrations may cause significant error
 Vibrational temperatures:     30.50    33.02    45.73    59.71    69.95
          (Kelvin)             78.82    89.21    92.78   108.93   111.68
                              120.09   139.55   175.81   189.17   246.62
                              255.85   275.20   310.19   323.71   342.03
                              343.23   347.49   432.58   448.16   475.52
                              494.68   500.24   535.92   613.46   629.64
                              692.67   696.15   748.27   773.26   798.43
                              842.65   915.74   947.32   996.86  1052.06
                             1077.34  1102.84  1116.33  1133.38  1167.96
                             1187.48  1240.75  1254.86  1261.77  1283.45
                             1296.55  1338.07  1378.79  1426.20  1428.61
                             1441.92  1460.03  1473.51  1476.85  1512.71
                             1559.46  1595.28  1596.91  1603.45  1654.57
                             1657.40  1673.09  1701.68  1713.78  1753.47
                             1838.47  1855.61  1872.24  1882.77  1910.11
                             1915.01  1925.94  1926.86  1969.24  1976.67
                             2000.06  2051.77  2052.68  2065.25  2110.62
                             2120.27  2120.54  2122.33  2138.50  2163.03
                             2175.87  2186.16  2192.64  2193.51  2215.15
                             2242.37  2317.17  2353.23  2397.83  2419.92
                             2460.10  2565.91  4381.09  4409.54  4414.60
                             4420.37  4424.10  4429.57  4437.92  4465.25
                             4475.89  4486.44  4518.45  4521.33  4524.70
                             4551.02  4584.73  4613.30  4630.00  4643.02
                             4654.74  4660.19  4748.29

 Zero-point correction=                           0.351016 (Hartree/Particle)
 Thermal correction to Energy=                    0.375516
 Thermal correction to Enthalpy=                  0.376461
 Thermal correction to Gibbs Free Energy=         0.292482
 Sum of electronic and zero-point Energies=          -1429.300694
 Sum of electronic and thermal Energies=             -1429.276193
 Sum of electronic and thermal Enthalpies=           -1429.275249
 Sum of electronic and thermal Free Energies=        -1429.359227

                     E (Thermal)             CV                S
                      KCal/Mol        Cal/Mol-Kelvin    Cal/Mol-Kelvin
 Total                  235.640             86.536            176.747
 Electronic               0.000              0.000              0.000
 Translational            0.889              2.981             43.269
 Rotational               0.889              2.981             35.857
 Vibrational            233.863             80.574             97.621
 Vibration     1          0.593              1.985              6.519
 Vibration     2          0.593              1.985              6.361
 Vibration     3          0.594              1.983              5.715
 Vibration     4          0.594              1.981              5.186
 Vibration     5          0.595              1.978              4.873
 Vibration     6          0.596              1.976              4.637
 Vibration     7          0.597              1.972              4.392
 Vibration     8          0.597              1.971              4.315
 Vibration     9          0.599              1.965              3.999
 Vibration    10          0.599              1.964              3.950
 Vibration    11          0.600              1.961              3.808
 Vibration    12          0.603              1.951              3.514
 Vibration    13          0.610              1.931              3.065
 Vibration    14          0.612              1.922              2.924
 Vibration    15          0.626              1.878              2.420
 Vibration    16          0.628              1.870              2.351
 Vibration    17          0.634              1.852              2.215
 Vibration    18          0.645              1.817              1.996
 Vibration    19          0.650              1.803              1.919
 Vibration    20          0.656              1.783              1.820
 Vibration    21          0.657              1.782              1.814
 Vibration    22          0.658              1.777              1.792
 Vibration    23          0.693              1.672              1.413
 Vibration    24          0.700              1.652              1.354
 Vibration    25          0.713              1.615              1.258
 Vibration    26          0.723              1.588              1.194
 Vibration    27          0.725              1.580              1.177
 Vibration    28          0.744              1.529              1.070
 Vibration    29          0.788              1.413              0.871
 Vibration    30          0.798              1.388              0.834
 Vibration    31          0.838              1.291              0.706
 Vibration    32          0.840              1.286              0.700
 Vibration    33          0.875              1.206              0.610
 Vibration    34          0.892              1.167              0.571
 Vibration    35          0.910              1.129              0.534
 Vibration    36          0.943              1.062              0.475

 Normal termination of Gaussian 09 at Tue Feb 19 15:57:46 2019.
