 Gaussian 09, Revision E.01,

 ----------------------------------------------------------------------
 # M062X/Gen 6D SCF=Tight INT(grid=ultrafine) OPT IOP(2/17=4) SCRF=(SMD
 ,Solvent=n-Pentadecane) maxdisk=1610612736
 ----------------------------------------------------------------------

 --------------------------------------------
 3Methyl4Chloro.M062X_6-31pGd_opt_Pentadecane
 --------------------------------------------
 Symbolic Z-matrix:
 Charge =  0 Multiplicity = 1

 SCF Done:  E(RM062X) =  -1072.88827652     A.U. after   15 cycles
 SCF Done:  E(RM062X) =  -1072.89549844     A.U. after   13 cycles
 SCF Done:  E(RM062X) =  -1072.89574291     A.U. after   13 cycles
 SCF Done:  E(RM062X) =  -1072.89585657     A.U. after   12 cycles
 SCF Done:  E(RM062X) =  -1072.89586464     A.U. after   10 cycles
 SCF Done:  E(RM062X) =  -1072.89586473     A.U. after    9 cycles
 SCF Done:  E(RM062X) =  -1072.89586560     A.U. after    9 cycles
 SCF Done:  E(RM062X) =  -1072.89586571     A.U. after    8 cycles
 SCF Done:  E(RM062X) =  -1072.89586583     A.U. after    9 cycles
 SCF Done:  E(RM062X) =  -1072.89586600     A.U. after    9 cycles
 SCF Done:  E(RM062X) =  -1072.89835462     A.U. after   13 cycles
 SCF Done:  E(RM062X) =  -1072.89837618     A.U. after   12 cycles
 SCF Done:  E(RM062X) =  -1072.89841230     A.U. after   12 cycles
 SCF Done:  E(RM062X) =  -1072.89843007     A.U. after   11 cycles
 SCF Done:  E(RM062X) =  -1072.89843402     A.U. after   11 cycles
 SCF Done:  E(RM062X) =  -1072.89843495     A.U. after   10 cycles
 SCF Done:  E(RM062X) =  -1072.89843592     A.U. after   10 cycles
 SCF Done:  E(RM062X) =  -1072.89843668     A.U. after   10 cycles
 SCF Done:  E(RM062X) =  -1072.89843695     A.U. after   10 cycles
 Optimization completed.
    -- Stationary point found.
 Normal termination of Gaussian 09 at Sun Feb 24 12:36:42 2019.
 Gaussian 09:  ES64L-G09RevE.01 30-Nov-2015

 ----------------------------------------------------------------------
 # M062X/Gen 6D SCF=Tight INT(grid=ultrafine) SCRF=(SMD,Solvent=n-Penta
 decane) Freq=Noraman maxdisk=1610612736 geom=check guess=read IOP(2/17
 =4)
 ----------------------------------------------------------------------

 --------------------------------------------
 3Methyl4Chloro.M062X_6-31pGd_opt_Pentadecane
 --------------------------------------------
 Structure from the checkpoint file:  "3Methyl4Chloro.M062X_6-31pGd_opt_Pentadecane.chk"
 Charge =  0 Multiplicity = 1

                         Standard orientation:
 ---------------------------------------------------------------------
 Center     Atomic      Atomic             Coordinates (Angstroms)
 Number     Number       Type             X           Y           Z
 ---------------------------------------------------------------------
      1          6           0        6.734463    0.393408    0.032626
      2          6           0        5.480335   -0.471874    0.116903
      3          6           0        4.219431    0.345067   -0.135206
      4          7           0        3.038525   -0.503234   -0.052033
      5          6           0        1.792053    0.066437    0.012913
      6          8           0        1.622514    1.270738    0.144991
      7          7           0        0.761924   -0.855511   -0.055152
      8          6           0       -0.619956   -0.614333   -0.023213
      9          6           0       -1.187779    0.664879   -0.039085
     10          6           0       -1.461694   -1.734263    0.010004
     11          6           0       -2.839871   -1.575742    0.025274
     12          6           0       -3.384926   -0.296848    0.008897
     13          6           0       -2.575240    0.841008   -0.023486
     14          1           0        7.635612   -0.198603    0.218219
     15          1           0        6.704866    1.199975    0.773373
     16          1           0        6.832796    0.851784   -0.957637
     17          1           0        5.408507   -0.940750    1.105607
     18          1           0        5.544830   -1.284289   -0.620044
     19          1           0        4.275524    0.840883   -1.115093
     20          1           0        4.116334    1.130363    0.618434
     21          1           0        3.119900   -1.427422   -0.459441
     22          1           0        1.024618   -1.833275   -0.030382
     23          1           0       -0.544497    1.534234   -0.058504
     24          1           0       -1.036948   -2.735182    0.023063
     25          1           0       -3.491186   -2.443595    0.051007
     26          6           0       -3.161702    2.226264   -0.040376
     27         17           0       -5.128901   -0.127383    0.029617
     28          1           0       -3.775747    2.405047    0.848932
     29          1           0       -3.808013    2.370104   -0.912914
     30          1           0       -2.369221    2.977529   -0.069256
 ---------------------------------------------------------------------

 SCF Done:  E(RM062X) =  -1072.89843695     A.U. after    1 cycles

 The electronic state is 1-A.
 Alpha  occ. eigenvalues -- -102.66722 -19.61447 -14.80456 -14.78715 -10.68800
 Alpha  occ. eigenvalues --  -10.60833 -10.60626 -10.58015 -10.57233 -10.56584
 Alpha  occ. eigenvalues --  -10.56127 -10.55101 -10.55057 -10.54032 -10.53867
 Alpha  occ. eigenvalues --   -9.81374  -7.53764  -7.53127  -7.53112  -1.18025
 Alpha  occ. eigenvalues --   -1.06249  -1.03081  -0.99195  -0.92977  -0.88640
 Alpha  occ. eigenvalues --   -0.87653  -0.83054  -0.78722  -0.77244  -0.71434
 Alpha  occ. eigenvalues --   -0.68975  -0.68632  -0.66397  -0.63374  -0.60045
 Alpha  occ. eigenvalues --   -0.56243  -0.55594  -0.54312  -0.53291  -0.52389
 Alpha  occ. eigenvalues --   -0.50894  -0.49840  -0.49587  -0.48043  -0.47630
 Alpha  occ. eigenvalues --   -0.46125  -0.45532  -0.44377  -0.42873  -0.42551
 Alpha  occ. eigenvalues --   -0.41887  -0.41661  -0.40619  -0.39959  -0.37297
 Alpha  occ. eigenvalues --   -0.35848  -0.34802  -0.32321  -0.30660  -0.26462
 Alpha virt. eigenvalues --    0.00416   0.01576   0.01837   0.02274   0.02956
 Alpha virt. eigenvalues --    0.03548   0.03779   0.04248   0.04866   0.05222
 Alpha virt. eigenvalues --    0.06052   0.06456   0.07146   0.07437   0.07732

 Mulliken charges:
               1
     1  C   -0.734374
     2  C   -0.331646
     3  C   -0.153764
     4  N   -0.590687
     5  C    0.740905
     6  O   -0.603402
     7  N   -0.687554
     8  C   -0.015051
     9  C    0.216292
    10  C   -0.947686
    11  C    0.009449
    12  C    0.144812
    13  C   -0.346099
    14  H    0.217277
    15  H    0.218985
    16  H    0.217163
    17  H    0.229110
    18  H    0.209024
    19  H    0.218278
    20  H    0.243894
    21  H    0.408428
    22  H    0.436100
    23  H    0.266097
    24  H    0.215521
    25  H    0.240693
    26  C   -0.710886
    27  Cl   0.163886
    28  H    0.248275
    29  H    0.247957
    30  H    0.229005
 Sum of Mulliken charges =  -0.00000

 Dipole moment (field-independent basis, Debye):
    X=              4.3537    Y=             -3.8499    Z=             -0.8873  Tot=              5.8791
 Quadrupole moment (field-independent basis, Debye-Ang):
   XX=            -94.0940   YY=            -89.7046   ZZ=           -101.2811
   XY=             -8.6031   XZ=             -2.4198   YZ=              0.6296

  Exact polarizability: 257.844  -3.748 176.690  -1.624  -0.415 110.311
 Approx polarizability: 229.835  -4.464 199.479  -1.527   0.450 127.351

                      1                      2                      3
                      A                      A                      A
 Frequencies --     23.9824                32.4961                60.9727
 Red. masses --      5.5457                 2.4270                 3.6020
 Frc consts  --      0.0019                 0.0015                 0.0079
 IR Inten    --      0.0838                 3.8361                 5.3575

                      4                      5                      6
                      A                      A                      A
 Frequencies --     62.7751                69.9632               130.4783
 Red. masses --      4.3539                 3.0315                 5.1043
 Frc consts  --      0.0101                 0.0087                 0.0512
 IR Inten    --      4.4131                 1.2302                 0.6812

                      7                      8                      9
                      A                      A                      A
 Frequencies --    146.9142               160.5080               191.6205
 Red. masses --      4.6645                 1.1073                 2.7165
 Frc consts  --      0.0593                 0.0168                 0.0588
 IR Inten    --     12.6471                 0.8350                 0.1399

                     10                     11                     12
                      A                      A                      A
 Frequencies --    217.4365               227.0532               233.5404
 Red. masses --      2.7396                 5.2926                 1.1666
 Frc consts  --      0.0763                 0.1608                 0.0375
 IR Inten    --      2.9939                 1.3489                 0.0622

                     13                     14                     15
                      A                      A                      A
 Frequencies --    254.4177               289.7457               335.3759
 Red. masses --      5.0040                 4.1153                 4.9049
 Frc consts  --      0.1908                 0.2036                 0.3250
 IR Inten    --      4.7756                 0.1221                 8.2946

                     16                     17                     18
                      A                      A                      A
 Frequencies --    341.7971               373.9590               417.8884
 Red. masses --      3.9100                 1.6676                 4.4744
 Frc consts  --      0.2691                 0.1374                 0.4604
 IR Inten    --     48.2901                62.3366                 7.8817

                     19                     20                     21
                      A                      A                      A
 Frequencies --    447.8241               451.9342               524.5736
 Red. masses --      3.0150                 3.0818                 3.9506
 Frc consts  --      0.3562                 0.3709                 0.6405
 IR Inten    --      7.6010                 5.8559                16.5217

                     22                     23                     24
                      A                      A                      A
 Frequencies --    530.3337               566.5948               579.7864
 Red. masses --      1.2066                 5.2608                 3.3452
 Frc consts  --      0.2000                 0.9950                 0.6625
 IR Inten    --    151.0703                11.6629                10.0712

                     25                     26                     27
                      A                      A                      A
 Frequencies --    688.7997               704.4631               753.4571
 Red. masses --      6.0722                 3.7521                 1.8115
 Frc consts  --      1.6974                 1.0971                 0.6059
 IR Inten    --      9.5043                 1.7280                11.7367

                     28                     29                     30
                      A                      A                      A
 Frequencies --    764.8713               770.5044               792.6108
 Red. masses --      2.0779                 5.3656                 5.3427
 Frc consts  --      0.7162                 1.8768                 1.9775
 IR Inten    --      1.2349                10.5825                 9.4248

                     31                     32                     33
                      A                      A                      A
 Frequencies --    832.8137               899.6761               922.4908
 Red. masses --      1.4364                 1.1843                 1.3472
 Frc consts  --      0.5870                 0.5648                 0.6755
 IR Inten    --     47.2604                 3.2970                21.2122

                     34                     35                     36
                      A                      A                      A
 Frequencies --    930.5130               965.7099               986.9383
 Red. masses --      1.6702                 1.3176                 2.8517
 Frc consts  --      0.8521                 0.7240                 1.6366
 IR Inten    --      3.4572                 0.2770                 0.1940

                     37                     38                     39
                      A                      A                      A
 Frequencies --   1038.1062              1047.1452              1067.9124
 Red. masses --      1.7307                 4.1978                 4.3664
 Frc consts  --      1.0989                 2.7120                 2.9339
 IR Inten    --      6.9742                 2.5383                62.2658

                     40                     41                     42
                      A                      A                      A
 Frequencies --   1069.4287              1083.0856              1149.1007
 Red. masses --      1.5257                 2.5081                 2.4374
 Frc consts  --      1.0281                 1.7335                 1.8962
 IR Inten    --      4.9035                 1.2998                 5.4899

                     43                     44                     45
                      A                      A                      A
 Frequencies --   1163.6324              1181.3206              1191.7045
 Red. masses --      2.3123                 1.8109                 1.3648
 Frc consts  --      1.8447                 1.4890                 1.1420
 IR Inten    --      3.2450                 5.0939                59.7021

                     46                     47                     48
                      A                      A                      A
 Frequencies --   1224.2904              1251.8295              1279.8738
 Red. masses --      1.9002                 1.6512                 1.3533
 Frc consts  --      1.6781                 1.5246                 1.3061
 IR Inten    --      8.0945               331.9562               135.0994

                     49                     50                     51
                      A                      A                      A
 Frequencies --   1288.3658              1309.0688              1325.6562
 Red. masses --      2.1353                 1.8847                 1.1505
 Frc consts  --      2.0883                 1.9029                 1.1912
 IR Inten    --      0.0573                22.1110                35.1945

                     52                     53                     54
                      A                      A                      A
 Frequencies --   1348.0494              1360.8635              1424.2317
 Red. masses --      1.3551                 3.4514                 1.4963
 Frc consts  --      1.4509                 3.7660                 1.7883
 IR Inten    --     12.1314                60.9309                 0.9263

                     55                     56                     57
                      A                      A                      A
 Frequencies --   1435.0319              1435.3828              1464.3869
 Red. masses --      1.2845                 1.3318                 3.1458
 Frc consts  --      1.5586                 1.6166                 3.9747
 IR Inten    --      4.9205                 1.4767               152.9025

                     58                     59                     60
                      A                      A                      A
 Frequencies --   1502.0648              1507.4245              1507.9374
 Red. masses --      1.0434                 1.3444                 1.0603
 Frc consts  --      1.3869                 1.7998                 1.4205
 IR Inten    --     11.5505                20.3906                 8.2567

                     61                     62                     63
                      A                      A                      A
 Frequencies --   1518.5004              1521.9305              1534.4415
 Red. masses --      1.0404                 1.0755                 1.1192
 Frc consts  --      1.4135                 1.4677                 1.5526
 IR Inten    --     14.1273                 4.7105                15.2367

                     64                     65                     66
                      A                      A                      A
 Frequencies --   1538.6443              1555.5374              1594.9631
 Red. masses --      1.7892                 2.0000                 2.2619
 Frc consts  --      2.4957                 2.8513                 3.3902
 IR Inten    --    420.5675               145.0352               921.4605

                     67                     68                     69
                      A                      A                      A
 Frequencies --   1668.3654              1689.3464              1799.0974
 Red. masses --      5.4062                 5.7515                 7.8846
 Frc consts  --      8.8659                 9.6709                15.0362
 IR Inten    --    135.6988                12.0438               352.6854

                     70                     71                     72
                      A                      A                      A
 Frequencies --   3053.6954              3062.3472              3078.7260
 Red. masses --      1.0709                 1.0644                 1.0366
 Frc consts  --      5.8837                 5.8810                 5.7887
 IR Inten    --     40.0520                39.3582                34.4682

                     73                     74                     75
                      A                      A                      A
 Frequencies --   3084.7314              3107.1154              3145.5105
 Red. masses --      1.0373                 1.0978                 1.0989
 Frc consts  --      5.8154                 6.2446                 6.4062
 IR Inten    --     17.0874                18.9759                 8.1224

                     76                     77                     78
                      A                      A                      A
 Frequencies --   3145.6890              3151.8216              3157.4642
 Red. masses --      1.1012                 1.0988                 1.1019
 Frc consts  --      6.4202                 6.4314                 6.4727
 IR Inten    --      9.1839                56.5635                34.4690

                     79                     80                     81
                      A                      A                      A
 Frequencies --   3177.3284              3212.0207              3244.5489
 Red. masses --      1.1022                 1.0902                 1.0946
 Frc consts  --      6.5560                 6.6268                 6.7889
 IR Inten    --     13.5505                11.6923                 1.6386

                     82                     83                     84
                      A                      A                      A
 Frequencies --   3286.4457              3618.8220              3630.9330
 Red. masses --      1.0916                 1.0779                 1.0774
 Frc consts  --      6.9468                 8.3172                 8.3691
 IR Inten    --      8.5978                19.7882                69.9743

 - Thermochemistry -
 -------------------
 Temperature   298.150 Kelvin.  Pressure   1.00000 Atm.
 Atom     1 has atomic number  6 and mass  12.00000

 Molecular mass:   226.08729 amu.
 Principal axes and moments of inertia in atomic units:
                           1         2         3
     Eigenvalues --   881.90491********************
           X            0.99999  -0.00454  -0.00016
           Y            0.00454   0.99999  -0.00132
           Z            0.00017   0.00132   1.00000
 This molecule is an asymmetric top.
 Rotational symmetry number  1.
 Warning -- assumption of classical behavior for rotation
           may cause significant error
 Rotational temperatures (Kelvin)      0.09821     0.00796     0.00740
 Rotational constants (GHZ):           2.04641     0.16592     0.15419
 Zero-point vibrational energy     657460.1 (Joules/Mol)
                                  157.13672 (Kcal/Mol)
 Warning -- explicit consideration of  24 degrees of freedom as
           vibrations may cause significant error
 Vibrational temperatures:     34.51    46.75    87.73    90.32   100.66
          (Kelvin)            187.73   211.38   230.93   275.70   312.84
                              326.68   336.01   366.05   416.88   482.53
                              491.77   538.04   601.25   644.32   650.23
                              754.74   763.03   815.20   834.18   991.03
                             1013.56  1084.06  1100.48  1108.58  1140.39
                             1198.23  1294.43  1327.26  1338.80  1389.44
                             1419.98  1493.60  1506.61  1536.49  1538.67
                             1558.32  1653.30  1674.21  1699.65  1714.59
                             1761.48  1801.10  1841.45  1853.67  1883.46
                             1907.32  1939.54  1957.98  2049.15  2064.69
                             2065.19  2106.92  2161.13  2168.84  2169.58
                             2184.78  2189.72  2207.72  2213.76  2238.07
                             2294.79  2400.40  2430.59  2588.50  4393.58
                             4406.03  4429.59  4438.23  4470.44  4525.68
                             4525.94  4534.76  4542.88  4571.46  4621.38
                             4668.18  4728.46  5206.67  5224.10

 Zero-point correction=                           0.250413 (Hartree/Particle)
 Thermal correction to Energy=                    0.266352
 Thermal correction to Enthalpy=                  0.267296
 Thermal correction to Gibbs Free Energy=         0.205104
 Sum of electronic and zero-point Energies=          -1072.648024
 Sum of electronic and thermal Energies=             -1072.632085
 Sum of electronic and thermal Enthalpies=           -1072.631140
 Sum of electronic and thermal Free Energies=        -1072.693333

                     E (Thermal)             CV                S
                      KCal/Mol        Cal/Mol-Kelvin    Cal/Mol-Kelvin
 Total                  167.139             57.770            130.895
 Electronic               0.000              0.000              0.000
 Translational            0.889              2.981             42.150
 Rotational               0.889              2.981             33.084
 Vibrational            165.361             51.809             55.661
 Vibration     1          0.593              1.985              6.274
 Vibration     2          0.594              1.983              5.671
 Vibration     3          0.597              1.973              4.425
 Vibration     4          0.597              1.972              4.368
 Vibration     5          0.598              1.968              4.154
 Vibration     6          0.612              1.923              2.939
 Vibration     7          0.617              1.906              2.712
 Vibration     8          0.622              1.891              2.544
 Vibration     9          0.634              1.851              2.212
 Vibration    10          0.646              1.814              1.980
 Vibration    11          0.651              1.800              1.902
 Vibration    12          0.654              1.790              1.852
 Vibration    13          0.665              1.755              1.700
 Vibration    14          0.686              1.693              1.475
 Vibration    15          0.716              1.605              1.234
 Vibration    16          0.721              1.592              1.204
 Vibration    17          0.745              1.526              1.064
 Vibration    18          0.781              1.431              0.899
 Vibration    19          0.807              1.366              0.802
 Vibration    20          0.811              1.357              0.790
 Vibration    21          0.880              1.196              0.599
 Vibration    22          0.885              1.183              0.586
 Vibration    23          0.923              1.104              0.511
 Vibration    24          0.936              1.075              0.486

 Optimization completed.
    -- Stationary point found.
 Normal termination of Gaussian 09 at Sun Feb 24 13:12:32 2019.
