 Gaussian 09, Revision E.01,

 ----------------------------------------------------------------------
 # M062X/Gen 6D SCF=Tight INT(grid=ultrafine) OPT IOP(2/17=4) maxdisk=1
 610612736
 ----------------------------------------------------------------------

 --------------------------------
 3Methyl4Chloro.M062X_6-31pGd_opt
 --------------------------------
 Symbolic Z-matrix:
 Charge =  0 Multiplicity = 1

 SCF Done:  E(RM062X) =  -1072.87024599     A.U. after   15 cycles
 SCF Done:  E(RM062X) =  -1072.87754029     A.U. after   13 cycles
 SCF Done:  E(RM062X) =  -1072.87773819     A.U. after   13 cycles
 SCF Done:  E(RM062X) =  -1072.87796109     A.U. after   12 cycles
 SCF Done:  E(RM062X) =  -1072.87796643     A.U. after   10 cycles
 SCF Done:  E(RM062X) =  -1072.87796746     A.U. after   10 cycles
 SCF Done:  E(RM062X) =  -1072.87796879     A.U. after    9 cycles
 SCF Done:  E(RM062X) =  -1072.87796892     A.U. after    9 cycles
 SCF Done:  E(RM062X) =  -1072.87796908     A.U. after   10 cycles
 SCF Done:  E(RM062X) =  -1072.87796918     A.U. after    9 cycles
 SCF Done:  E(RM062X) =  -1072.88071890     A.U. after   12 cycles
 SCF Done:  E(RM062X) =  -1072.88073487     A.U. after   12 cycles
 SCF Done:  E(RM062X) =  -1072.88074398     A.U. after   12 cycles
 SCF Done:  E(RM062X) =  -1072.88074554     A.U. after   11 cycles
 SCF Done:  E(RM062X) =  -1072.88074647     A.U. after   11 cycles
 SCF Done:  E(RM062X) =  -1072.88074697     A.U. after   10 cycles
 SCF Done:  E(RM062X) =  -1072.88074741     A.U. after   11 cycles
 SCF Done:  E(RM062X) =  -1072.88074749     A.U. after   10 cycles
 Optimization completed.
    -- Stationary point found.
 Normal termination of Gaussian 09 at Tue Oct 30 12:47:23 2018.
 Gaussian 09:  ES64L-G09RevE.01 30-Nov-2015

 ----------------------------------------------------------------------
 # M062X/Gen 6D SCF=Tight INT(grid=ultrafine) OPT IOP(2/17=4) Freq=Nora
 man maxdisk=1610612736 geom=check guess=read IOP(2/17=4)
 ----------------------------------------------------------------------

 --------------------------------
 3Methyl4Chloro.M062X_6-31pGd_opt
 --------------------------------
 Structure from the checkpoint file:  "3Methyl4Chloro.M062X_6-31pGd_opt.chk"
 Charge =  0 Multiplicity = 1

 SCF Done:  E(RM062X) =  -1072.88074749     A.U. after    1 cycles
 Optimization completed.
    -- Stationary point found.
 Normal termination of Gaussian 09 at Tue Oct 30 12:48:03 2018.

 ----------------------------------------------------------------------
 #N Geom=AllCheck Guess=TCheck SCRF=Check Test GenChk RM062X/ChkBas Fre
 q
 ----------------------------------------------------------------------

 Structure from the checkpoint file:  "3Methyl4Chloro.M062X_6-31pGd_opt.chk"
 --------------------------------
 3Methyl4Chloro.M062X_6-31pGd_opt
 --------------------------------
 Charge =  0 Multiplicity = 1

                         Standard orientation:
 ---------------------------------------------------------------------
 Center     Atomic      Atomic             Coordinates (Angstroms)
 Number     Number       Type             X           Y           Z
 ---------------------------------------------------------------------
      1          6           0        6.724208    0.429741    0.028079
      2          6           0        5.486708   -0.463597    0.077244
      3          6           0        4.206694    0.343418   -0.097827
      4          7           0        3.041037   -0.529460   -0.044195
      5          6           0        1.789017    0.044868    0.027629
      6          8           0        1.624011    1.241476    0.193801
      7          7           0        0.759123   -0.875938   -0.076659
      8          6           0       -0.623620   -0.627321   -0.034083
      9          6           0       -1.180194    0.655845   -0.060769
     10          6           0       -1.471981   -1.739980    0.015479
     11          6           0       -2.849064   -1.571441    0.036526
     12          6           0       -3.385486   -0.289371    0.009615
     13          6           0       -2.565799    0.840919   -0.039152
     14          1           0        7.639480   -0.155079    0.154873
     15          1           0        6.693691    1.182902    0.822483
     16          1           0        6.791931    0.956573   -0.929747
     17          1           0        5.441597   -0.999342    1.032773
     18          1           0        5.553154   -1.224808   -0.712825
     19          1           0        4.232572    0.904396   -1.043425
     20          1           0        4.102047    1.077512    0.705494
     21          1           0        3.123210   -1.403482   -0.549550
     22          1           0        1.018491   -1.851873   -0.020848
     23          1           0       -0.528562    1.518854   -0.089822
     24          1           0       -1.055259   -2.744361    0.036099
     25          1           0       -3.508488   -2.432312    0.075005
     26          6           0       -3.144530    2.229904   -0.066489
     27         17           0       -5.124370   -0.105911    0.038625
     28          1           0       -3.754481    2.417416    0.823407
     29          1           0       -3.795747    2.365990   -0.936215
     30          1           0       -2.348271    2.976173   -0.106264
 ---------------------------------------------------------------------

 SCF Done:  E(RM062X) =  -1072.88074749     A.U. after    1 cycles

 The electronic state is 1-A.
 Alpha  occ. eigenvalues -- -102.66577 -19.61915 -14.81032 -14.79365 -10.69227
 Alpha  occ. eigenvalues --  -10.61045 -10.60708 -10.58725 -10.57346 -10.56808
 Alpha  occ. eigenvalues --  -10.56507 -10.56023 -10.55242 -10.54797 -10.54378
 Alpha  occ. eigenvalues --   -9.81231  -7.53625  -7.52980  -7.52966  -1.18581
 Alpha  occ. eigenvalues --   -1.06756  -1.03646  -0.99323  -0.93123  -0.89353
 Alpha  occ. eigenvalues --   -0.87938  -0.83330  -0.79136  -0.77745  -0.71807
 Alpha  occ. eigenvalues --   -0.69609  -0.69199  -0.66838  -0.63879  -0.60444
 Alpha  occ. eigenvalues --   -0.56887  -0.55986  -0.54604  -0.53884  -0.52860
 Alpha  occ. eigenvalues --   -0.51264  -0.50256  -0.49858  -0.48466  -0.48252
 Alpha  occ. eigenvalues --   -0.46817  -0.45852  -0.44675  -0.43618  -0.42879
 Alpha  occ. eigenvalues --   -0.42147  -0.42009  -0.41316  -0.40737  -0.37199
 Alpha  occ. eigenvalues --   -0.36011  -0.35246  -0.32906  -0.30812  -0.26714
 Alpha virt. eigenvalues --   -0.00506   0.01436   0.01639   0.02052   0.02481
 Alpha virt. eigenvalues --    0.02916   0.03547   0.03835   0.04607   0.04821
 Alpha virt. eigenvalues --    0.05697   0.06172   0.06760   0.06954   0.07591

 Mulliken charges:
               1
     1  C   -0.712168
     2  C   -0.315902
     3  C   -0.159212
     4  N   -0.560081
     5  C    0.684859
     6  O   -0.567330
     7  N   -0.681306
     8  C   -0.012009
     9  C    0.208504
    10  C   -0.866629
    11  C    0.004219
    12  C    0.149691
    13  C   -0.360986
    14  H    0.213802
    15  H    0.215292
    16  H    0.213703
    17  H    0.226951
    18  H    0.200736
    19  H    0.213603
    20  H    0.242238
    21  H    0.382134
    22  H    0.408909
    23  H    0.262514
    24  H    0.193999
    25  H    0.226533
    26  C   -0.702784
    27  Cl   0.183611
    28  H    0.243118
    29  H    0.243181
    30  H    0.220811
 Sum of Mulliken charges =  -0.00000

 Dipole moment (field-independent basis, Debye):
    X=              3.7720    Y=             -3.1700    Z=             -0.9062  Tot=              5.0098
 Quadrupole moment (field-independent basis, Debye-Ang):
   XX=            -93.9438   YY=            -90.6828   ZZ=           -101.0394
   XY=             -7.1921   XZ=             -2.4506   YZ=              0.4617

  Exact polarizability: 233.725  -3.050 153.402  -1.363  -0.338  98.353
 Approx polarizability: 228.400  -4.544 200.379  -1.694   0.581 127.207

                      1                      2                      3
                      A                      A                      A
 Frequencies --     19.6906                22.5532                56.9271
 Red. masses --      4.2727                 3.2720                 3.2447
 Frc consts  --      0.0010                 0.0010                 0.0062
 IR Inten    --      2.7453                 2.1413                 5.0367

                      4                      5                      6
                      A                      A                      A
 Frequencies --     62.6133                72.8203               127.5849
 Red. masses --      4.6769                 2.7081                 5.2439
 Frc consts  --      0.0108                 0.0085                 0.0503
 IR Inten    --      0.8477                 0.9860                 0.4031

                      7                      8                      9
                      A                      A                      A
 Frequencies --    150.7826               157.1284               184.4769
 Red. masses --      4.3221                 1.1021                 2.4796
 Frc consts  --      0.0579                 0.0160                 0.0497
 IR Inten    --      8.4547                 0.5141                 1.6396

                     10                     11                     12
                      A                      A                      A
 Frequencies --    215.1663               226.2199               238.0005
 Red. masses --      2.7506                 5.2930                 1.1379
 Frc consts  --      0.0750                 0.1596                 0.0380
 IR Inten    --      2.7797                 1.5072                 0.1393

                     13                     14                     15
                      A                      A                      A
 Frequencies --    254.2664               288.9099               330.4772
 Red. masses --      5.0454                 4.1148                 3.3439
 Frc consts  --      0.1922                 0.2024                 0.2152
 IR Inten    --      3.9154                 0.0929                14.9823

                     16                     17                     18
                      A                      A                      A
 Frequencies --    343.4938               368.0699               413.4176
 Red. masses --      4.1569                 1.9025                 4.6282
 Frc consts  --      0.2890                 0.1519                 0.4661
 IR Inten    --     39.7335                40.9705                11.0017

                     19                     20                     21
                      A                      A                      A
 Frequencies --    445.9992               448.8640               492.0786
 Red. masses --      3.0339                 3.0536                 1.3530
 Frc consts  --      0.3556                 0.3625                 0.1930
 IR Inten    --     13.9527                 2.0176               106.4287

                     22                     23                     24
                      A                      A                      A
 Frequencies --    526.1370               567.7550               579.6834
 Red. masses --      3.8028                 5.1611                 3.3273
 Frc consts  --      0.6202                 0.9802                 0.6588
 IR Inten    --     23.9618                 9.6339                 8.3594

                     25                     26                     27
                      A                      A                      A
 Frequencies --    690.3995               704.6327               751.8320
 Red. masses --      5.8797                 3.7864                 2.0755
 Frc consts  --      1.6512                 1.1076                 0.6912
 IR Inten    --      6.8066                 1.4300                10.1650

                     28                     29                     30
                      A                      A                      A
 Frequencies --    764.6108               769.3829               794.8750
 Red. masses --      1.8322                 5.0790                 5.1673
 Frc consts  --      0.6311                 1.7714                 1.9236
 IR Inten    --      0.9864                10.0035                10.7675

                     31                     32                     33
                      A                      A                      A
 Frequencies --    829.0373               900.6186               923.7733
 Red. masses --      1.4442                 1.1842                 1.3464
 Frc consts  --      0.5848                 0.5659                 0.6770
 IR Inten    --     36.9613                 2.9951                16.6785

                     34                     35                     36
                      A                      A                      A
 Frequencies --    930.9692               959.9495               987.9646
 Red. masses --      1.6830                 1.3184                 2.8821
 Frc consts  --      0.8594                 0.7158                 1.6574
 IR Inten    --      2.6698                 0.3478                 0.3110

                     37                     38                     39
                      A                      A                      A
 Frequencies --   1038.8898              1045.3679              1069.4026
 Red. masses --      1.7481                 4.1396                 1.5163
 Frc consts  --      1.1116                 2.6653                 1.0217
 IR Inten    --      4.7636                 1.8743                 2.9743

                     40                     41                     42
                      A                      A                      A
 Frequencies --   1072.5596              1081.5569              1148.3161
 Red. masses --      4.1859                 2.6000                 2.4210
 Frc consts  --      2.8372                 1.7920                 1.8809
 IR Inten    --     54.0793                 1.9884                 5.5460

                     43                     44                     45
                      A                      A                      A
 Frequencies --   1164.7034              1180.0026              1188.7606
 Red. masses --      2.3557                 1.7090                 1.3824
 Frc consts  --      1.8828                 1.4020                 1.1510
 IR Inten    --      2.6090                 0.1424                45.9432

                     46                     47                     48
                      A                      A                      A
 Frequencies --   1222.2346              1239.5052              1280.7319
 Red. masses --      1.8642                 1.7147                 1.4787
 Frc consts  --      1.6408                 1.5521                 1.4290
 IR Inten    --     13.2119               282.3395                81.5904

                     49                     50                     51
                      A                      A                      A
 Frequencies --   1288.9984              1309.3826              1327.1141
 Red. masses --      1.9987                 1.6886                 1.1484
 Frc consts  --      1.9566                 1.7057                 1.1917
 IR Inten    --     11.3614                20.4940                26.8687

                     52                     53                     54
                      A                      A                      A
 Frequencies --   1346.7496              1355.4336              1425.4184
 Red. masses --      1.3440                 3.5742                 1.5187
 Frc consts  --      1.4362                 3.8688                 1.8181
 IR Inten    --      5.7863                32.7626                 2.6555

                     55                     56                     57
                      A                      A                      A
 Frequencies --   1436.4210              1437.7381              1465.3805
 Red. masses --      1.2627                 1.3235                 3.3163
 Frc consts  --      1.5350                 1.6119                 4.1957
 IR Inten    --      5.1707                 1.9299               127.1360

                     58                     59                     60
                      A                      A                      A
 Frequencies --   1505.7705              1508.3774              1516.0943
 Red. masses --      1.0597                 1.3300                 1.0606
 Frc consts  --      1.4157                 1.7829                 1.4363
 IR Inten    --     10.2219                15.3175                 7.7586

                     61                     62                     63
                      A                      A                      A
 Frequencies --   1524.9222              1527.6965              1531.7234
 Red. masses --      1.0582                 1.0749                 1.4661
 Frc consts  --      1.4498                 1.4780                 2.0266
 IR Inten    --     29.4006                 1.3821               218.2560

                     64                     65                     66
                      A                      A                      A
 Frequencies --   1540.4316              1549.9410              1586.5929
 Red. masses --      1.1574                 2.1060                 2.4675
 Frc consts  --      1.6182                 2.9808                 3.6597
 IR Inten    --     85.9926                14.2093               949.3665

                     67                     68                     69
                      A                      A                      A
 Frequencies --   1668.4974              1690.2214              1818.7598
 Red. masses --      5.7278                 6.1446                 8.7532
 Frc consts  --      9.3949                10.3426                17.0595
 IR Inten    --    100.3152                13.1594               254.7214

                     70                     71                     72
                      A                      A                      A
 Frequencies --   3050.4079              3057.3357              3079.6752
 Red. masses --      1.0714                 1.0658                 1.0363
 Frc consts  --      5.8738                 5.8698                 5.7910
 IR Inten    --     32.4283                31.7749                30.3417

                     73                     74                     75
                      A                      A                      A
 Frequencies --   3084.4122              3107.2374              3145.3722
 Red. masses --      1.0368                 1.0960                 1.1009
 Frc consts  --      5.8117                 6.2344                 6.4170
 IR Inten    --     15.2300                15.6466                 8.1275

                     76                     77                     78
                      A                      A                      A
 Frequencies --   3145.9635              3152.5764              3160.1499
 Red. masses --      1.0974                 1.1000                 1.1018
 Frc consts  --      6.3989                 6.4411                 6.4829
 IR Inten    --      3.0055                47.3649                29.2131

                     79                     80                     81
                      A                      A                      A
 Frequencies --   3177.5337              3205.1781              3244.5020
 Red. masses --      1.1024                 1.0900                 1.0941
 Frc consts  --      6.5579                 6.5976                 6.7861
 IR Inten    --     11.5031                13.8406                 2.4466

                     82                     83                     84
                      A                      A                      A
 Frequencies --   3282.9262              3615.0046              3638.3196
 Red. masses --      1.0918                 1.0771                 1.0769
 Frc consts  --      6.9329                 8.2929                 8.3990
 IR Inten    --      7.6240                21.1362                26.4249

 - Thermochemistry -
 -------------------
 Temperature   298.150 Kelvin.  Pressure   1.00000 Atm.
 Atom     1 has atomic number  6 and mass  12.00000

 Molecular mass:   226.08729 amu.
 Principal axes and moments of inertia in atomic units:
                           1         2         3
     Eigenvalues --   883.12514********************
           X            0.99999  -0.00410  -0.00022
           Y            0.00410   0.99999  -0.00186
           Z            0.00023   0.00185   1.00000
 This molecule is an asymmetric top.
 Rotational symmetry number  1.
 Warning -- assumption of classical behavior for rotation
           may cause significant error
 Rotational temperatures (Kelvin)      0.09808     0.00798     0.00741
 Rotational constants (GHZ):           2.04358     0.16621     0.15444
 Zero-point vibrational energy     656997.8 (Joules/Mol)
                                  157.02624 (Kcal/Mol)
 Warning -- explicit consideration of  24 degrees of freedom as
           vibrations may cause significant error
 Vibrational temperatures:     28.33    32.45    81.91    90.09   104.77
          (Kelvin)            183.57   216.94   226.07   265.42   309.58
                              325.48   342.43   365.83   415.68   475.48
                              494.21   529.57   594.81   641.69   645.81
                              707.99   756.99   816.87   834.03   993.33
                             1013.81  1081.72  1100.10  1106.97  1143.65
                             1192.80  1295.79  1329.10  1339.46  1381.15
                             1421.46  1494.73  1504.05  1538.63  1543.17
                             1556.12  1652.17  1675.75  1697.76  1710.36
                             1758.52  1783.37  1842.69  1854.58  1883.91
                             1909.42  1937.67  1950.16  2050.86  2066.69
                             2068.58  2108.35  2166.47  2170.22  2181.32
                             2194.02  2198.01  2203.81  2216.33  2230.02
                             2282.75  2400.59  2431.85  2616.79  4388.85
                             4398.82  4430.96  4437.78  4470.62  4525.48
                             4526.33  4535.85  4546.75  4571.76  4611.53
                             4668.11  4723.39  5201.18  5234.72

 Zero-point correction=                           0.250237 (Hartree/Particle)
 Thermal correction to Energy=                    0.266271
 Thermal correction to Enthalpy=                  0.267215
 Thermal correction to Gibbs Free Energy=         0.204339
 Sum of electronic and zero-point Energies=          -1072.630510
 Sum of electronic and thermal Energies=             -1072.614477
 Sum of electronic and thermal Enthalpies=           -1072.613533
 Sum of electronic and thermal Free Energies=        -1072.676408

                     E (Thermal)             CV                S
                      KCal/Mol        Cal/Mol-Kelvin    Cal/Mol-Kelvin
 Total                  167.087             57.913            132.333
 Electronic               0.000              0.000              0.000
 Translational            0.889              2.981             42.150
 Rotational               0.889              2.981             33.082
 Vibrational            165.310             51.951             57.101
 Vibration     1          0.593              1.986              6.665
 Vibration     2          0.593              1.985              6.396
 Vibration     3          0.596              1.975              4.561
 Vibration     4          0.597              1.972              4.373
 Vibration     5          0.599              1.967              4.076
 Vibration     6          0.611              1.926              2.982
 Vibration     7          0.618              1.902              2.662
 Vibration     8          0.621              1.895              2.584
 Vibration     9          0.631              1.861              2.283
 Vibration    10          0.645              1.818              1.999
 Vibration    11          0.650              1.801              1.909
 Vibration    12          0.656              1.782              1.818
 Vibration    13          0.665              1.756              1.701
 Vibration    14          0.685              1.694              1.480
 Vibration    15          0.713              1.615              1.258
 Vibration    16          0.722              1.588              1.196
 Vibration    17          0.741              1.538              1.088
 Vibration    18          0.777              1.441              0.915
 Vibration    19          0.805              1.370              0.808
 Vibration    20          0.808              1.363              0.799
 Vibration    21          0.848              1.268              0.678
 Vibration    22          0.881              1.192              0.596
 Vibration    23          0.924              1.101              0.509
 Vibration    24          0.936              1.075              0.486

 Normal termination of Gaussian 09 at Tue Oct 30 13:22:27 2018.
