 Gaussian 09, Revision E.01,

 ----------------------------------------------------------------------
 # M062X/Gen 6D SCF=Tight INT(grid=ultrafine) OPT IOP(2/17=4) SCRF=(SMD
 ,Solvent=h2o) maxdisk=1610612736
 ----------------------------------------------------------------------

 --------------------------------------
 3Methyl4Chloro.M062X_6-31pGd_opt_water
 --------------------------------------
 Symbolic Z-matrix:
 Charge =  0 Multiplicity = 1

 SCF Done:  E(RM062X) =  -1072.89067513     A.U. after   15 cycles
 SCF Done:  E(RM062X) =  -1072.89789692     A.U. after   13 cycles
 SCF Done:  E(RM062X) =  -1072.89819776     A.U. after   12 cycles
 SCF Done:  E(RM062X) =  -1072.89822681     A.U. after   11 cycles
 SCF Done:  E(RM062X) =  -1072.89824031     A.U. after   11 cycles
 SCF Done:  E(RM062X) =  -1072.89825240     A.U. after   11 cycles
 SCF Done:  E(RM062X) =  -1072.89818698     A.U. after   15 cycles
 SCF Done:  E(RM062X) =  -1072.89826933     A.U. after   14 cycles
 SCF Done:  E(RM062X) =  -1072.89830701     A.U. after   12 cycles
 SCF Done:  E(RM062X) =  -1072.89832610     A.U. after   12 cycles
 SCF Done:  E(RM062X) =  -1072.90089776     A.U. after   11 cycles
 SCF Done:  E(RM062X) =  -1072.90089919     A.U. after   10 cycles
 SCF Done:  E(RM062X) =  -1072.90090019     A.U. after   10 cycles
 SCF Done:  E(RM062X) =  -1072.90090091     A.U. after   11 cycles
 SCF Done:  E(RM062X) =  -1072.90090108     A.U. after   10 cycles
 SCF Done:  E(RM062X) =  -1072.90090110     A.U. after    9 cycles
 SCF Done:  E(RM062X) =  -1072.90090110     A.U. after    9 cycles
 SCF Done:  E(RM062X) =  -1072.90090111     A.U. after    9 cycles
 Optimization completed.
    -- Stationary point found.
 Normal termination of Gaussian 09 at Tue Oct 30 15:15:28 2018.
 Gaussian 09:  ES64L-G09RevE.01 30-Nov-2015

 ----------------------------------------------------------------------
 # M062X/Gen 6D SCF=Tight INT(grid=ultrafine) OPT IOP(2/17=4) SCRF=(SMD
 ,Solvent=h2o) Freq=Noraman maxdisk=1610612736 geom=check guess=read IO
 P(2/17=4)
 ----------------------------------------------------------------------

 --------------------------------------
 3Methyl4Chloro.M062X_6-31pGd_opt_water
 --------------------------------------
 Structure from the checkpoint file:  "3Methyl4Chloro.M062X_6-31pGd_opt_water.chk"
 Charge =  0 Multiplicity = 1

 SCF Done:  E(RM062X) =  -1072.90090111     A.U. after    1 cycles
 Optimization completed.
    -- Stationary point found.
 Normal termination of Gaussian 09 at Tue Oct 30 15:16:20 2018.

 ----------------------------------------------------------------------
 #N Geom=AllCheck Guess=TCheck SCRF=Check Test GenChk RM062X/ChkBas Fre
 q
 ----------------------------------------------------------------------

 Structure from the checkpoint file:  "3Methyl4Chloro.M062X_6-31pGd_opt_water.chk"
 --------------------------------------
 3Methyl4Chloro.M062X_6-31pGd_opt_water
 --------------------------------------
 Charge =  0 Multiplicity = 1

                         Standard orientation:
 ---------------------------------------------------------------------
 Center     Atomic      Atomic             Coordinates (Angstroms)
 Number     Number       Type             X           Y           Z
 ---------------------------------------------------------------------
      1          6           0        6.699200    0.421581    0.217629
      2          6           0        5.468635   -0.432640   -0.069560
      3          6           0        4.188546    0.361322    0.141924
      4          7           0        3.024376   -0.466277   -0.150218
      5          6           0        1.770892    0.017953    0.000716
      6          8           0        1.549711    1.135024    0.494063
      7          7           0        0.765877   -0.826642   -0.426522
      8          6           0       -0.612663   -0.611917   -0.238926
      9          6           0       -1.194462    0.656013   -0.338190
     10          6           0       -1.425585   -1.725596   -0.003330
     11          6           0       -2.798298   -1.566534    0.143870
     12          6           0       -3.352575   -0.293668    0.066038
     13          6           0       -2.571026    0.839964   -0.177069
     14          1           0        7.618689   -0.151775    0.067237
     15          1           0        6.692074    0.782801    1.251923
     16          1           0        6.733403    1.294047   -0.444116
     17          1           0        5.460249   -1.312368    0.585179
     18          1           0        5.500396   -0.798696   -1.103445
     19          1           0        4.186194    1.250907   -0.501158
     20          1           0        4.127472    0.705758    1.179650
     21          1           0        3.167543   -1.321907   -0.676024
     22          1           0        1.031456   -1.792095   -0.597437
     23          1           0       -0.575901    1.519078   -0.553558
     24          1           0       -0.981914   -2.715079    0.066085
     25          1           0       -3.431593   -2.428616    0.328495
     26          6           0       -3.172940    2.213907   -0.281299
     27         17           0       -5.085985   -0.120562    0.272497
     28          1           0       -3.914131    2.259919   -1.086403
     29          1           0       -2.395969    2.954848   -0.482138
     30          1           0       -3.684033    2.490671    0.647116
 ---------------------------------------------------------------------

 SCF Done:  E(RM062X) =  -1072.90090111     A.U. after    1 cycles

 The electronic state is 1-A.
 Alpha  occ. eigenvalues -- -102.67333 -19.62280 -14.79872 -14.78590 -10.69229
 Alpha  occ. eigenvalues --  -10.61169 -10.60694 -10.57625 -10.57625 -10.56648
 Alpha  occ. eigenvalues --  -10.55984 -10.55689 -10.54152 -10.54028 -10.52950
 Alpha  occ. eigenvalues --   -9.81987  -7.54373  -7.53745  -7.53724  -1.18178
 Alpha  occ. eigenvalues --   -1.05951  -1.03000  -0.99580  -0.93295  -0.88286
 Alpha  occ. eigenvalues --   -0.87646  -0.83070  -0.78631  -0.77055  -0.71178
 Alpha  occ. eigenvalues --   -0.68738  -0.68343  -0.66236  -0.63125  -0.59896
 Alpha  occ. eigenvalues --   -0.56181  -0.55639  -0.54947  -0.53178  -0.51918
 Alpha  occ. eigenvalues --   -0.51233  -0.50141  -0.49738  -0.48049  -0.46653
 Alpha  occ. eigenvalues --   -0.46113  -0.45585  -0.44454  -0.42771  -0.42332
 Alpha  occ. eigenvalues --   -0.41920  -0.41325  -0.39854  -0.39177  -0.37817
 Alpha  occ. eigenvalues --   -0.36068  -0.36009  -0.32511  -0.30923  -0.27092
 Alpha virt. eigenvalues --    0.00976   0.01511   0.01694   0.02239   0.03404
 Alpha virt. eigenvalues --    0.03917   0.04066   0.04376   0.05087   0.05686
 Alpha virt. eigenvalues --    0.05911   0.06613   0.07242   0.07603   0.07784

 Mulliken charges:
               1
     1  C   -0.738872
     2  C   -0.379051
     3  C   -0.172170
     4  N   -0.650077
     5  C    0.634732
     6  O   -0.760158
     7  N   -0.686064
     8  C    0.337279
     9  C   -0.558629
    10  C   -0.524456
    11  C   -0.201160
    12  C    0.331479
    13  C   -0.273369
    14  H    0.223393
    15  H    0.222022
    16  H    0.222334
    17  H    0.234376
    18  H    0.231934
    19  H    0.232295
    20  H    0.238428
    21  H    0.474848
    22  H    0.484376
    23  H    0.258837
    24  H    0.261627
    25  H    0.267382
    26  C   -0.606429
    27  Cl   0.136776
    28  H    0.258144
    29  H    0.241885
    30  H    0.258287
 Sum of Mulliken charges =   0.00000

 Dipole moment (field-independent basis, Debye):
    X=              5.1600    Y=             -5.3984    Z=             -2.7160  Tot=              7.9464
 Quadrupole moment (field-independent basis, Debye-Ang):
   XX=            -89.8166   YY=            -87.6089   ZZ=           -101.2590
   XY=            -10.8592   XZ=             -4.2733   YZ=             -0.9614

  Exact polarizability: 289.714  -5.282 226.819  -8.995   0.062 150.927
 Approx polarizability: 229.001  -5.646 194.933  -8.697   0.353 132.508

                      1                      2                      3
                      A                      A                      A
 Frequencies --     23.7949                38.9830                53.5865
 Red. masses --      5.3254                 3.4196                 2.7716
 Frc consts  --      0.0018                 0.0031                 0.0047
 IR Inten    --      0.0495                 9.7638                 7.3671

                      4                      5                      6
                      A                      A                      A
 Frequencies --     68.3391                74.4979               120.5233
 Red. masses --      4.2968                 3.1436                 5.6672
 Frc consts  --      0.0118                 0.0103                 0.0485
 IR Inten    --     11.7378                20.6470                 4.6475

                      7                      8                      9
                      A                      A                      A
 Frequencies --    143.3235               153.2464               161.9502
 Red. masses --      3.1730                 1.2203                 2.5697
 Frc consts  --      0.0384                 0.0169                 0.0397
 IR Inten    --     25.7003                 1.4911                 4.8360

                     10                     11                     12
                      A                      A                      A
 Frequencies --    220.9153               234.0689               238.0819
 Red. masses --      3.2495                 2.4171                 1.5325
 Frc consts  --      0.0934                 0.0780                 0.0512
 IR Inten    --      4.1656                 1.1729                 0.0200

                     13                     14                     15
                      A                      A                      A
 Frequencies --    253.8792               294.1791               337.0844
 Red. masses --      4.7018                 4.2110                 4.2682
 Frc consts  --      0.1786                 0.2147                 0.2857
 IR Inten    --      6.3477                 3.1921                17.3612

                     16                     17                     18
                      A                      A                      A
 Frequencies --    345.3382               358.2466               408.0264
 Red. masses --      2.3737                 1.6698                 5.3594
 Frc consts  --      0.1668                 0.1263                 0.5257
 IR Inten    --     63.1681                68.1879                29.2647

                     19                     20                     21
                      A                      A                      A
 Frequencies --    447.8980               457.0630               508.0761
 Red. masses --      2.9571                 3.4698                 1.5578
 Frc consts  --      0.3495                 0.4271                 0.2369
 IR Inten    --     11.6758                 4.8407               197.2467

                     22                     23                     24
                      A                      A                      A
 Frequencies --    523.1653               562.6684               580.7241
 Red. masses --      2.5585                 5.5533                 3.5061
 Frc consts  --      0.4126                 1.0359                 0.6966
 IR Inten    --     58.4167                 9.1952                 5.5719

                     25                     26                     27
                      A                      A                      A
 Frequencies --    685.7592               706.5881               757.5748
 Red. masses --      6.2696                 3.7449                 1.9286
 Frc consts  --      1.7371                 1.1016                 0.6521
 IR Inten    --     14.4730                 0.7784                25.2742

                     28                     29                     30
                      A                      A                      A
 Frequencies --    762.6512               769.6833               791.7760
 Red. masses --      3.4042                 2.4504                 3.9825
 Frc consts  --      1.1666                 0.8553                 1.4710
 IR Inten    --     10.0744                 8.3568                49.0285

                     31                     32                     33
                      A                      A                      A
 Frequencies --    841.8765               903.1455               907.3486
 Red. masses --      1.4990                 1.4276                 1.1531
 Frc consts  --      0.6260                 0.6861                 0.5593
 IR Inten    --     49.2011                34.5577                 2.2829

                     34                     35                     36
                      A                      A                      A
 Frequencies --    930.7121               975.8996               988.1145
 Red. masses --      1.6458                 1.3322                 2.8846
 Frc consts  --      0.8399                 0.7475                 1.6594
 IR Inten    --      5.3366                 0.0697                 0.3755

                     37                     38                     39
                      A                      A                      A
 Frequencies --   1035.5813              1050.5921              1063.8649
 Red. masses --      1.6908                 4.3300                 4.5659
 Frc consts  --      1.0683                 2.8158                 3.0447
 IR Inten    --      7.7844                10.6822                87.1571

                     40                     41                     42
                      A                      A                      A
 Frequencies --   1065.5518              1085.9825              1149.0452
 Red. masses --      1.5315                 2.5280                 2.4366
 Frc consts  --      1.0245                 1.7566                 1.8955
 IR Inten    --      8.5394                 1.7429                 9.3960

                     43                     44                     45
                      A                      A                      A
 Frequencies --   1170.0522              1172.6822              1182.3989
 Red. masses --      1.9070                 1.6926                 1.6757
 Frc consts  --      1.5382                 1.3714                 1.3803
 IR Inten    --      6.2327                24.1391                 7.7585

                     46                     47                     48
                      A                      A                      A
 Frequencies --   1225.0757              1269.3371              1282.5313
 Red. masses --      1.9469                 1.6669                 1.2923
 Frc consts  --      1.7216                 1.5824                 1.2524
 IR Inten    --     37.7767               367.6280                64.8227

                     49                     50                     51
                      A                      A                      A
 Frequencies --   1291.1383              1310.2417              1330.4565
 Red. masses --      1.6352                 2.1158                 1.0850
 Frc consts  --      1.6061                 2.1401                 1.1316
 IR Inten    --      3.4453                43.1732                 9.1293

                     52                     53                     54
                      A                      A                      A
 Frequencies --   1349.7142              1352.3190              1420.8621
 Red. masses --      3.1235                 1.5986                 1.2847
 Frc consts  --      3.3525                 1.7224                 1.5282
 IR Inten    --     24.1984                78.6323                 4.4597

                     55                     56                     57
                      A                      A                      A
 Frequencies --   1425.2639              1430.4793              1453.1458
 Red. masses --      1.2732                 1.6169                 2.8284
 Frc consts  --      1.5239                 1.9494                 3.5189
 IR Inten    --      5.1942                 0.7896               217.3081

                     58                     59                     60
                      A                      A                      A
 Frequencies --   1486.1387              1492.2846              1494.1738
 Red. masses --      1.0434                 1.0575                 1.3375
 Frc consts  --      1.3578                 1.3875                 1.7593
 IR Inten    --     15.1642                11.1882                78.2891

                     61                     62                     63
                      A                      A                      A
 Frequencies --   1502.1561              1512.8719              1528.5256
 Red. masses --      1.0394                 1.0866                 1.9321
 Frc consts  --      1.3818                 1.4653                 2.6596
 IR Inten    --     11.8457                12.2346               238.1209

                     64                     65                     66
                      A                      A                      A
 Frequencies --   1532.0729              1554.9711              1581.5190
 Red. masses --      1.1096                 2.2498                 2.3966
 Frc consts  --      1.5345                 3.2051                 3.5318
 IR Inten    --     88.7664                69.1033              1377.8743

                     67                     68                     69
                      A                      A                      A
 Frequencies --   1658.6866              1683.7462              1696.7992
 Red. masses --      7.4071                 4.7696                 5.8524
 Frc consts  --     12.0068                 7.9669                 9.9277
 IR Inten    --    133.8549                66.0560               655.8683

                     70                     71                     72
                      A                      A                      A
 Frequencies --   3072.4972              3076.9900              3078.2910
 Red. masses --      1.0611                 1.0515                 1.0473
 Frc consts  --      5.9016                 5.8656                 5.8472
 IR Inten    --      5.8721                22.8539               114.6985

                     73                     74                     75
                      A                      A                      A
 Frequencies --   3084.2391              3109.0982              3129.1408
 Red. masses --      1.0375                 1.1001                 1.1047
 Frc consts  --      5.8148                 6.2653                 6.3729
 IR Inten    --     18.6633                 6.6761                47.8177

                     76                     77                     78
                      A                      A                      A
 Frequencies --   3146.2471              3147.7601              3157.1814
 Red. masses --      1.1018                 1.1040                 1.1022
 Frc consts  --      6.4260                 6.4449                 6.4733
 IR Inten    --     12.7033                98.2117                47.9564

                     79                     80                     81
                      A                      A                      A
 Frequencies --   3178.6299              3228.6254              3248.6572
 Red. masses --      1.1024                 1.0910                 1.0954
 Frc consts  --      6.5625                 6.7004                 6.8113
 IR Inten    --     18.5279                 4.3622                 0.4245

                     82                     83                     84
                      A                      A                      A
 Frequencies --   3267.3627              3588.3875              3612.2889
 Red. masses --      1.0918                 1.0786                 1.0795
 Frc consts  --      6.8676                 8.1829                 8.2990
 IR Inten    --      0.3053               101.9709               170.7459

 - Thermochemistry -
 -------------------
 Temperature   298.150 Kelvin.  Pressure   1.00000 Atm.
 Atom     1 has atomic number  6 and mass  12.00000

 Molecular mass:   226.08729 amu.
 Principal axes and moments of inertia in atomic units:
                           1         2         3
     Eigenvalues --   901.41294********************
           X            0.99999  -0.00421   0.00213
           Y            0.00422   0.99997  -0.00675
           Z           -0.00210   0.00676   0.99997
 This molecule is an asymmetric top.
 Rotational symmetry number  1.
 Warning -- assumption of classical behavior for rotation
           may cause significant error
 Rotational temperatures (Kelvin)      0.09609     0.00803     0.00751
 Rotational constants (GHZ):           2.00212     0.16731     0.15651
 Zero-point vibrational energy     655520.4 (Joules/Mol)
                                  156.67313 (Kcal/Mol)
 Warning -- explicit consideration of  24 degrees of freedom as
           vibrations may cause significant error
 Vibrational temperatures:     34.24    56.09    77.10    98.32   107.19
          (Kelvin)            173.41   206.21   220.49   233.01   317.85
                              336.77   342.55   365.28   423.26   484.99
                              496.86   515.44   587.06   644.42   657.61
                              731.01   752.72   809.55   835.53   986.65
                             1016.62  1089.98  1097.28  1107.40  1139.19
                             1211.27  1299.42  1305.47  1339.09  1404.10
                             1421.67  1489.97  1511.57  1530.66  1533.09
                             1562.48  1653.22  1683.44  1687.23  1701.21
                             1762.61  1826.29  1845.27  1857.66  1885.14
                             1914.23  1941.94  1945.68  2044.30  2050.63
                             2058.14  2090.75  2138.22  2147.06  2149.78
                             2161.26  2176.68  2199.20  2204.31  2237.25
                             2275.45  2386.48  2422.53  2441.31  4420.63
                             4427.10  4428.97  4437.53  4473.29  4502.13
                             4526.74  4528.92  4542.47  4573.33  4645.27
                             4674.09  4701.00  5162.88  5197.27

 Zero-point correction=                           0.249675 (Hartree/Particle)
 Thermal correction to Energy=                    0.265690
 Thermal correction to Enthalpy=                  0.266634
 Thermal correction to Gibbs Free Energy=         0.204343
 Sum of electronic and zero-point Energies=          -1072.651227
 Sum of electronic and thermal Energies=             -1072.635212
 Sum of electronic and thermal Enthalpies=           -1072.634267
 Sum of electronic and thermal Free Energies=        -1072.696558

                     E (Thermal)             CV                S
                      KCal/Mol        Cal/Mol-Kelvin    Cal/Mol-Kelvin
 Total                  166.723             57.921            131.101
 Electronic               0.000              0.000              0.000
 Translational            0.889              2.981             42.150
 Rotational               0.889              2.981             33.083
 Vibrational            164.945             51.959             55.869
 Vibration     1          0.593              1.985              6.289
 Vibration     2          0.594              1.981              5.310
 Vibration     3          0.596              1.976              4.680
 Vibration     4          0.598              1.969              4.201
 Vibration     5          0.599              1.966              4.031
 Vibration     6          0.609              1.932              3.092
 Vibration     7          0.616              1.910              2.759
 Vibration     8          0.619              1.899              2.632
 Vibration     9          0.622              1.889              2.527
 Vibration    10          0.648              1.809              1.952
 Vibration    11          0.654              1.789              1.848
 Vibration    12          0.656              1.782              1.817
 Vibration    13          0.665              1.756              1.703
 Vibration    14          0.689              1.685              1.450
 Vibration    15          0.718              1.601              1.226
 Vibration    16          0.724              1.585              1.187
 Vibration    17          0.733              1.558              1.130
 Vibration    18          0.773              1.453              0.934
 Vibration    19          0.807              1.366              0.802
 Vibration    20          0.815              1.345              0.775
 Vibration    21          0.863              1.232              0.638
 Vibration    22          0.878              1.199              0.603
 Vibration    23          0.918              1.112              0.519
 Vibration    24          0.937              1.073              0.484

 Optimization completed.
    -- Stationary point found.
 Normal termination of Gaussian 09 at Tue Oct 30 15:50:58 2018.
