 Gaussian 09, Revision E.01,

 ----------------------------------------------------------------------
 # M062X/Gen 6D SCF=Tight INT(grid=ultrafine) OPT IOP(2/17=4) SCRF=(SMD
 ,Solvent=h2o) maxdisk=2684354560
 ----------------------------------------------------------------------

 ------------------------------------------
 3Methyl4Chloro_EtO.M062X_6-31pGd_opt_water
 ------------------------------------------
 Symbolic Z-matrix:
 Charge = -1 Multiplicity = 1

 SCF Done:  E(RM062X) =  -1340.71856999     A.U. after   15 cycles
 SCF Done:  E(RM062X) =  -1340.74823580     A.U. after   13 cycles
 SCF Done:  E(RM062X) =  -1340.75420746     A.U. after   13 cycles
 SCF Done:  E(RM062X) =  -1340.75510225     A.U. after   12 cycles
 SCF Done:  E(RM062X) =  -1340.75545660     A.U. after   14 cycles
 SCF Done:  E(RM062X) =  -1340.75532960     A.U. after   15 cycles
 SCF Done:  E(RM062X) =  -1340.75571470     A.U. after   15 cycles
 SCF Done:  E(RM062X) =  -1340.75580713     A.U. after   12 cycles
 SCF Done:  E(RM062X) =  -1340.75582684     A.U. after   11 cycles
 SCF Done:  E(RM062X) =  -1340.75583645     A.U. after   11 cycles
 SCF Done:  E(RM062X) =  -1340.75868747     A.U. after    9 cycles
 SCF Done:  E(RM062X) =  -1340.75868795     A.U. after    9 cycles
 SCF Done:  E(RM062X) =  -1340.75868871     A.U. after   10 cycles
 SCF Done:  E(RM062X) =  -1340.75868983     A.U. after   10 cycles
 SCF Done:  E(RM062X) =  -1340.75869039     A.U. after    9 cycles
 SCF Done:  E(RM062X) =  -1340.75869051     A.U. after    8 cycles
 SCF Done:  E(RM062X) =  -1340.75869058     A.U. after    8 cycles
 SCF Done:  E(RM062X) =  -1340.75869059     A.U. after    8 cycles
 Optimization completed.
    -- Stationary point found.
 Normal termination of Gaussian 09 at Tue Feb 19 17:58:35 2019.
 Gaussian 09:  ES64L-G09RevE.01 30-Nov-2015

 ----------------------------------------------------------------------
 # M062X/Gen 6D SCF=Tight INT(grid=ultrafine) OPT IOP(2/17=4) SCRF=(SMD
 ,Solvent=h2o) Freq=Noraman maxdisk=2684354560 geom=check guess=read IO
 P(2/17=4)
 ----------------------------------------------------------------------

 ------------------------------------------
 3Methyl4Chloro_EtO.M062X_6-31pGd_opt_water
 ------------------------------------------
 Structure from the checkpoint file:  "3Methyl4Chloro_EtO.M062X_6-31pGd_opt_water.chk"
 Charge = -1 Multiplicity = 1

 SCF Done:  E(RM062X) =  -1340.75869059     A.U. after    1 cycles
 Optimization completed.
    -- Stationary point found.
 Normal termination of Gaussian 09 at Tue Feb 19 18:00:20 2019.

 ----------------------------------------------------------------------
 #N Geom=AllCheck Guess=TCheck SCRF=Check Test GenChk RM062X/ChkBas Fre
 q
 ----------------------------------------------------------------------

 Structure from the checkpoint file:  "3Methyl4Chloro_EtO.M062X_6-31pGd_opt_water.chk"
 ------------------------------------------
 3Methyl4Chloro_EtO.M062X_6-31pGd_opt_water
 ------------------------------------------
 Charge = -1 Multiplicity = 1

                         Standard orientation:
 ---------------------------------------------------------------------
 Center     Atomic      Atomic             Coordinates (Angstroms)
 Number     Number       Type             X           Y           Z
 ---------------------------------------------------------------------
      1          6           0        5.375740   -3.254777   -0.268430
      2          6           0        4.437280   -2.066008   -0.087502
      3          6           0        2.981641   -2.484868   -0.237114
      4          7           0        2.108321   -1.332265   -0.076522
      5          6           0        0.767434   -1.459795   -0.146659
      6          8           0        0.211074   -2.546615   -0.396803
      7          7           0        0.076347   -0.285940    0.069291
      8          6           0       -1.315088   -0.130495   -0.006877
      9          6           0       -2.216387   -1.128017    0.384848
     10          6           0       -1.812387    1.106896   -0.436761
     11          6           0       -3.182782    1.331175   -0.484505
     12          6           0       -4.057751    0.316773   -0.111332
     13          6           0       -3.599066   -0.927424    0.331563
     14          1           0        6.421248   -2.951093   -0.159966
     15          1           0        5.255435   -3.700687   -1.262032
     16          1           0        5.171595   -4.032060    0.476384
     17          1           0        4.667389   -1.288988   -0.827061
     18          1           0        4.584809   -1.618928    0.903511
     19          1           0        2.734958   -3.250712    0.509812
     20          1           0        2.821287   -2.932518   -1.225388
     21          1           0        2.517020   -0.444991    0.242973
     22          1           0        0.628767    0.581780    0.004821
     23          1           0       -1.843341   -2.077720    0.749567
     24          1           0       -1.123508    1.891958   -0.735936
     25          1           0       -3.568090    2.289088   -0.819851
     26          6           0       -4.543946   -2.018187    0.754896
     27         17           0       -5.784022    0.623189   -0.197949
     28          1           0       -5.206036   -2.306984   -0.068568
     29          1           0       -5.180515   -1.689420    1.583390
     30          1           0       -3.986597   -2.901230    1.075510
     31          8           0        3.307680    1.141758    0.853264
     32          8           0        1.613934    2.139376   -0.210316
     33          6           0        2.755715    2.157212    0.331585
     34          6           0        3.541473    3.464819    0.373105
     35          6           0        2.837646    4.664569   -0.244893
     36          1           0        4.498766    3.275990   -0.127701
     37          1           0        3.785836    3.656957    1.424705
     38          1           0        2.616143    4.492580   -1.302720
     39          1           0        3.468486    5.556190   -0.172601
     40          1           0        1.893393    4.876610    0.266195
 ---------------------------------------------------------------------

 SCF Done:  E(RM062X) =  -1340.75869059     A.U. after    1 cycles

 The electronic state is 1-A.
 Alpha  occ. eigenvalues -- -102.67135 -19.61496 -19.60576 -19.60186 -14.78123
 Alpha  occ. eigenvalues --  -14.76921 -10.68138 -10.64993 -10.60816 -10.60179
 Alpha  occ. eigenvalues --  -10.57346 -10.57100 -10.56346 -10.55510 -10.55270
 Alpha  occ. eigenvalues --  -10.53888 -10.53816 -10.53595 -10.52763 -10.52581
 Alpha  occ. eigenvalues --   -9.81787  -7.54172  -7.53546  -7.53527  -1.17103
 Alpha  occ. eigenvalues --   -1.16393  -1.06594  -1.04836  -1.01877  -0.99169
 Alpha  occ. eigenvalues --   -0.92857  -0.87908  -0.87258  -0.85688  -0.82581
 Alpha  occ. eigenvalues --   -0.78289  -0.76579  -0.72168  -0.70656  -0.68272
 Alpha  occ. eigenvalues --   -0.67602  -0.65536  -0.62116  -0.59744  -0.58577
 Alpha  occ. eigenvalues --   -0.55669  -0.55128  -0.54460  -0.53066  -0.52924
 Alpha  occ. eigenvalues --   -0.52630  -0.51450  -0.50620  -0.50294  -0.49577
 Alpha  occ. eigenvalues --   -0.49470  -0.47688  -0.46357  -0.45944  -0.45762
 Alpha  occ. eigenvalues --   -0.45284  -0.44264  -0.44125  -0.42481  -0.41981
 Alpha  occ. eigenvalues --   -0.41603  -0.41354  -0.40973  -0.39537  -0.39437
 Alpha  occ. eigenvalues --   -0.38857  -0.37602  -0.35482  -0.35370  -0.33718
 Alpha  occ. eigenvalues --   -0.32695  -0.32296  -0.31567  -0.30603  -0.26266
 Alpha virt. eigenvalues --    0.01331   0.01836   0.01860   0.02571   0.03312
 Alpha virt. eigenvalues --    0.03627   0.03929   0.04415   0.04569   0.05351
 Alpha virt. eigenvalues --    0.05592   0.05924   0.06439   0.06575   0.07117

 Mulliken charges:
               1
     1  C   -0.838289
     2  C   -0.336382
     3  C   -0.142807
     4  N   -0.769963
     5  C    0.691155
     6  O   -0.759711
     7  N   -0.662830
     8  C   -0.128237
     9  C   -0.504297
    10  C    0.052573
    11  C   -0.042770
    12  C    0.186088
    13  C   -0.540795
    14  H    0.222659
    15  H    0.221000
    16  H    0.221182
    17  H    0.236445
    18  H    0.235503
    19  H    0.233836
    20  H    0.235119
    21  H    0.518198
    22  H    0.518104
    23  H    0.254672
    24  H    0.262876
    25  H    0.264470
    26  C   -0.629058
    27  Cl   0.138161
    28  H    0.256435
    29  H    0.256791
    30  H    0.240842
    31  O   -0.772560
    32  O   -0.780814
    33  C    0.734476
    34  C   -0.486400
    35  C   -0.738216
    36  H    0.245146
    37  H    0.244548
    38  H    0.222379
    39  H    0.218243
    40  H    0.222226
 Sum of Mulliken charges =  -1.00000

 Dipole moment (field-independent basis, Debye):
    X=             -2.9211    Y=             -0.3506    Z=              0.0430  Tot=              2.9424
 Quadrupole moment (field-independent basis, Debye-Ang):
   XX=           -157.3951   YY=           -143.0913   ZZ=           -135.3844
   XY=             -5.1121   XZ=             -8.4032   YZ=             -5.5133

  Exact polarizability: 363.598 -13.111 296.666   7.033 -19.558 210.825
 Approx polarizability: 288.518  -6.887 244.714   6.283 -16.112 181.992

                      1                      2                      3
                      A                      A                      A
 Frequencies --     20.4912                25.1959                29.5621
 Red. masses --      4.9599                 4.2193                 4.1976
 Frc consts  --      0.0012                 0.0016                 0.0022
 IR Inten    --      1.1748                 3.2002                 0.5544

                      4                      5                      6
                      A                      A                      A
 Frequencies --     38.3583                47.7210                49.3777
 Red. masses --      2.6894                 1.8671                 3.2721
 Frc consts  --      0.0023                 0.0025                 0.0047
 IR Inten    --      0.6122                 1.8696                 7.1360

                      7                      8                      9
                      A                      A                      A
 Frequencies --     55.3897                65.0022                71.7256
 Red. masses --      5.5212                 5.2100                 7.3991
 Frc consts  --      0.0100                 0.0130                 0.0224
 IR Inten    --      9.5001                 4.0244                 1.4476

                     10                     11                     12
                      A                      A                      A
 Frequencies --     77.9765               102.1739               119.9625
 Red. masses --      4.8519                 4.8202                 5.4115
 Frc consts  --      0.0174                 0.0296                 0.0459
 IR Inten    --      7.8757                19.6131                11.0058

                     13                     14                     15
                      A                      A                      A
 Frequencies --    139.3441               155.8785               165.5828
 Red. masses --      6.4574                 3.0441                 2.8615
 Frc consts  --      0.0739                 0.0436                 0.0462
 IR Inten    --     15.9148                23.9473                14.0374

                     16                     17                     18
                      A                      A                      A
 Frequencies --    173.6913               223.7719               233.7459
 Red. masses --      1.2661                 3.0987                 5.1881
 Frc consts  --      0.0225                 0.0914                 0.1670
 IR Inten    --      1.9162                 3.0090                 0.8394

                     19                     20                     21
                      A                      A                      A
 Frequencies --    239.3346               242.0810               256.4812
 Red. masses --      1.1380                 1.0948                 4.8602
 Frc consts  --      0.0384                 0.0378                 0.1884
 IR Inten    --      0.0611                 1.8601                 6.7469

                     22                     23                     24
                      A                      A                      A
 Frequencies --    293.9849               305.8461               336.9114
 Red. masses --      4.1085                 4.2914                 5.6827
 Frc consts  --      0.2092                 0.2365                 0.3800
 IR Inten    --      5.6269                 5.3903                 5.3594

                     25                     26                     27
                      A                      A                      A
 Frequencies --    346.6146               410.8826               450.1668
 Red. masses --      5.9069                 6.0648                 3.0285
 Frc consts  --      0.4181                 0.6033                 0.3616
 IR Inten    --     18.3223                28.9584                 4.9827

                     28                     29                     30
                      A                      A                      A
 Frequencies --    458.0618               518.0101               518.3730
 Red. masses --      3.6425                 5.4920                 4.3321
 Frc consts  --      0.4503                 0.8683                 0.6859
 IR Inten    --      6.6076                25.4709                11.5568

                     31                     32                     33
                      A                      A                      A
 Frequencies --    562.7479               581.5844               581.9915
 Red. masses --      5.6079                 1.9610                 3.2871
 Frc consts  --      1.0463                 0.3908                 0.6560
 IR Inten    --     10.7403                 2.2432                 2.8539

                     34                     35                     36
                      A                      A                      A
 Frequencies --    643.1264               658.0813               687.3941
 Red. masses --      1.7040                 2.3863                 4.7189
 Frc consts  --      0.4153                 0.6089                 1.3137
 IR Inten    --    152.1183                72.4426                38.5836

                     37                     38                     39
                      A                      A                      A
 Frequencies --    708.0028               722.5286               758.4671
 Red. masses --      3.5664                 1.6324                 1.2520
 Frc consts  --      1.0533                 0.5021                 0.4244
 IR Inten    --     19.7996               123.2668                 8.7683

                     40                     41                     42
                      A                      A                      A
 Frequencies --    763.3939               779.2003               806.4967
 Red. masses --      4.0766                 3.8530                 2.0412
 Frc consts  --      1.3998                 1.3783                 0.7822
 IR Inten    --      9.5657                21.2294               159.0999

                     43                     44                     45
                      A                      A                      A
 Frequencies --    819.8732               842.0161               886.3023
 Red. masses --      1.4980                 1.5215                 3.8485
 Frc consts  --      0.5933                 0.6356                 1.7812
 IR Inten    --     58.6822                38.5879                35.3618

                     46                     47                     48
                      A                      A                      A
 Frequencies --    905.2398               907.5073               929.0373
 Red. masses --      1.1555                 1.3893                 1.6370
 Frc consts  --      0.5579                 0.6741                 0.8325
 IR Inten    --      1.1119                32.0404                 5.4191

                     49                     50                     51
                      A                      A                      A
 Frequencies --    975.6752               990.2849              1027.4780
 Red. masses --      1.3314                 2.8765                 1.6456
 Frc consts  --      0.7467                 1.6620                 1.0236
 IR Inten    --      0.0590                 2.0964                13.1099

                     52                     53                     54
                      A                      A                      A
 Frequencies --   1037.0250              1050.1061              1062.2639
 Red. masses --      1.7084                 4.3035                 4.3866
 Frc consts  --      1.0824                 2.7960                 2.9163
 IR Inten    --      3.9454                21.7796                74.1719

                     55                     56                     57
                      A                      A                      A
 Frequencies --   1066.2379              1084.4640              1109.0056
 Red. masses --      1.5145                 2.4790                 1.7869
 Frc consts  --      1.0145                 1.7177                 1.2948
 IR Inten    --      8.3178                 0.6113                 2.2139

                     58                     59                     60
                      A                      A                      A
 Frequencies --   1111.9997              1151.8954              1174.2796
 Red. masses --      2.3528                 2.4062                 1.9471
 Frc consts  --      1.7142                 1.8811                 1.5819
 IR Inten    --     15.6620                13.0067                 1.4944

                     61                     62                     63
                      A                      A                      A
 Frequencies --   1177.6689              1180.2950              1227.8084
 Red. masses --      1.6901                 1.6757                 2.0805
 Frc consts  --      1.3811                 1.3754                 1.8479
 IR Inten    --     31.5871                 6.6455                33.9203

                     64                     65                     66
                      A                      A                      A
 Frequencies --   1279.4159              1290.8787              1291.3985
 Red. masses --      1.1945                 1.3200                 1.9930
 Frc consts  --      1.1520                 1.2959                 1.9583
 IR Inten    --      0.5658                67.4037               232.6649

                     67                     68                     69
                      A                      A                      A
 Frequencies --   1296.4887              1317.4943              1326.2529
 Red. masses --      1.4346                 2.0296                 1.0780
 Frc consts  --      1.4208                 2.0757                 1.1172
 IR Inten    --    135.8187               104.1277                 3.1760

                     70                     71                     72
                      A                      A                      A
 Frequencies --   1336.4440              1356.1718              1357.8513
 Red. masses --      1.7378                 1.9039                 2.9046
 Frc consts  --      1.8287                 2.0631                 3.1553
 IR Inten    --     93.0374                90.9962               215.8501

                     73                     74                     75
                      A                      A                      A
 Frequencies --   1419.0682              1420.6905              1427.3578
 Red. masses --      1.2789                 1.3141                 1.2877
 Frc consts  --      1.5173                 1.5627                 1.5457
 IR Inten    --      2.7039                31.6729                 1.6538

                     76                     77                     78
                      A                      A                      A
 Frequencies --   1430.2535              1456.0800              1456.4254
 Red. masses --      1.6333                 2.7555                 1.4233
 Frc consts  --      1.9686                 3.4420                 1.7788
 IR Inten    --      7.6358               172.0370               171.9450

                     79                     80                     81
                      A                      A                      A
 Frequencies --   1472.8253              1487.9656              1488.6775
 Red. masses --      2.6408                 1.0423                 1.0595
 Frc consts  --      3.3752                 1.3597                 1.3834
 IR Inten    --    246.4646                16.0267                 6.5280

                     82                     83                     84
                      A                      A                      A
 Frequencies --   1498.5834              1500.5074              1502.6981
 Red. masses --      1.3526                 1.0398                 1.0398
 Frc consts  --      1.7897                 1.3793                 1.3834
 IR Inten    --     55.7849                11.1329                11.6362

                     85                     86                     87
                      A                      A                      A
 Frequencies --   1507.9826              1510.8554              1530.4066
 Red. masses --      1.1216                 1.0835                 1.0943
 Frc consts  --      1.5027                 1.4572                 1.5100
 IR Inten    --     78.2236                 2.8844                52.3512

                     88                     89                     90
                      A                      A                      A
 Frequencies --   1534.7813              1557.5070              1584.2643
 Red. masses --      2.2884                 7.4148                 2.3981
 Frc consts  --      3.1760                10.5976                 3.5462
 IR Inten    --    318.3379               995.0182               224.9581

                     91                     92                     93
                      A                      A                      A
 Frequencies --   1612.9889              1654.1637              1688.2278
 Red. masses --      2.0078                 7.4809                 5.7953
 Frc consts  --      3.0777                12.0604                 9.7318
 IR Inten    --   1620.5556               172.4402                86.5274

                     94                     95                     96
                      A                      A                      A
 Frequencies --   1695.7910              3065.3438              3073.7402
 Red. masses --      2.6648                 1.0599                 1.0573
 Frc consts  --      4.5150                 5.8676                 5.8855
 IR Inten    --    608.0034                38.4972                50.3846

                     97                     98                     99
                      A                      A                      A
 Frequencies --   3075.3788              3083.2766              3083.7155
 Red. masses --      1.0390                 1.0377                 1.0441
 Frc consts  --      5.7900                 5.8123                 5.8500
 IR Inten    --     86.3901                20.8834                58.6915

                    100                    101                    102
                      A                      A                      A
 Frequencies --   3085.0964              3098.0439              3117.8574
 Red. masses --      1.0538                 1.1024                 1.1060
 Frc consts  --      5.9097                 6.2342                 6.3346
 IR Inten    --      7.1489                11.6597                62.7428

                    103                    104                    105
                      A                      A                      A
 Frequencies --   3120.9968              3144.4780              3144.6930
 Red. masses --      1.1016                 1.1038                 1.1017
 Frc consts  --      6.3219                 6.4301                 6.4190
 IR Inten    --      8.2031                94.1105                14.2852

                    106                    107                    108
                      A                      A                      A
 Frequencies --   3154.0140              3154.3472              3159.1585
 Red. masses --      1.1023                 1.1022                 1.1036
 Frc consts  --      6.4610                 6.4612                 6.4893
 IR Inten    --     50.9539                50.2035                57.4647

                    109                    110                    111
                      A                      A                      A
 Frequencies --   3178.9676              3232.4836              3246.5461
 Red. masses --      1.1022                 1.0900                 1.0961
 Frc consts  --      6.5626                 6.7104                 6.8069
 IR Inten    --     18.8773                 3.0216                 0.4760

                    112                    113                    114
                      A                      A                      A
 Frequencies --   3262.9483              3291.2834              3339.8483
 Red. masses --      1.0916                 1.0862                 1.0862
 Frc consts  --      6.8473                 6.9325                 7.1387
 IR Inten    --      0.4380               719.8343              1604.1390

 - Thermochemistry -
 -------------------
 Temperature   298.150 Kelvin.  Pressure   1.00000 Atm.
 Atom     1 has atomic number  6 and mass  12.00000

 Molecular mass:   299.11625 amu.
 Principal axes and moments of inertia in atomic units:
                           1         2         3
     Eigenvalues --  4759.01676********************
           X            0.99999   0.00304  -0.00440
           Y           -0.00307   0.99998  -0.00520
           Z            0.00438   0.00521   0.99998
 This molecule is an asymmetric top.
 Rotational symmetry number  1.
 Warning -- assumption of classical behavior for rotation
           may cause significant error
 Rotational temperatures (Kelvin)      0.01820     0.00659     0.00494
 Rotational constants (GHZ):           0.37923     0.13730     0.10292
 Zero-point vibrational energy     864564.5 (Joules/Mol)
                                  206.63587 (Kcal/Mol)
 Warning -- explicit consideration of  33 degrees of freedom as
           vibrations may cause significant error
 Vibrational temperatures:     29.48    36.25    42.53    55.19    68.66
          (Kelvin)             71.04    79.69    93.52   103.20   112.19
                              147.01   172.60   200.48   224.27   238.24
                              249.90   321.96   336.31   344.35   348.30
                              369.02   422.98   440.04   484.74   498.70
                              591.17   647.69   659.05   745.30   745.82
                              809.67   836.77   837.35   925.31   946.83
                              989.01  1018.66  1039.56  1091.26  1098.35
                             1121.09  1160.37  1179.61  1211.47  1275.19
                             1302.44  1305.70  1336.68  1403.78  1424.80
                             1478.31  1492.05  1510.87  1528.36  1534.08
                             1560.30  1595.61  1599.92  1657.32  1689.52
                             1694.40  1698.18  1766.54  1840.79  1857.28
                             1858.03  1865.36  1895.58  1908.18  1922.84
                             1951.23  1953.64  2041.72  2044.05  2053.65
                             2057.81  2094.97  2095.47  2119.06  2140.85
                             2141.87  2156.12  2158.89  2162.04  2169.65
                             2173.78  2201.91  2208.21  2240.90  2279.40
                             2320.73  2379.97  2428.98  2439.86  4410.34
                             4422.42  4424.78  4436.14  4436.77  4438.76
                             4457.39  4485.90  4490.41  4524.20  4524.51
                             4537.92  4538.40  4545.32  4573.82  4650.82
                             4671.05  4694.65  4735.42  4805.29

 Zero-point correction=                           0.329295 (Hartree/Particle)
 Thermal correction to Energy=                    0.352210
 Thermal correction to Enthalpy=                  0.353154
 Thermal correction to Gibbs Free Energy=         0.272260
 Sum of electronic and zero-point Energies=          -1340.429395
 Sum of electronic and thermal Energies=             -1340.406481
 Sum of electronic and thermal Enthalpies=           -1340.405537
 Sum of electronic and thermal Free Energies=        -1340.486431

                     E (Thermal)             CV                S
                      KCal/Mol        Cal/Mol-Kelvin    Cal/Mol-Kelvin
 Total                  221.015             79.880            170.256
 Electronic               0.000              0.000              0.000
 Translational            0.889              2.981             42.984
 Rotational               0.889              2.981             35.349
 Vibrational            219.237             73.918             91.923
 Vibration     1          0.593              1.986              6.586
 Vibration     2          0.593              1.985              6.176
 Vibration     3          0.593              1.984              5.859
 Vibration     4          0.594              1.982              5.342
 Vibration     5          0.595              1.978              4.910
 Vibration     6          0.595              1.978              4.842
 Vibration     7          0.596              1.975              4.615
 Vibration     8          0.597              1.971              4.299
 Vibration     9          0.598              1.967              4.105
 Vibration    10          0.599              1.964              3.941
 Vibration    11          0.604              1.947              3.412
 Vibration    12          0.609              1.933              3.101
 Vibration    13          0.615              1.914              2.813
 Vibration    14          0.620              1.896              2.599
 Vibration    15          0.624              1.885              2.485
 Vibration    16          0.627              1.875              2.395
 Vibration    17          0.649              1.805              1.928
 Vibration    18          0.654              1.789              1.850
 Vibration    19          0.657              1.780              1.808
 Vibration    20          0.658              1.776              1.788
 Vibration    21          0.666              1.752              1.686
 Vibration    22          0.689              1.685              1.451
 Vibration    23          0.696              1.663              1.385
 Vibration    24          0.718              1.602              1.227
 Vibration    25          0.725              1.582              1.182
 Vibration    26          0.775              1.447              0.924
 Vibration    27          0.809              1.361              0.795
 Vibration    28          0.816              1.343              0.772
 Vibration    29          0.873              1.210              0.615
 Vibration    30          0.873              1.209              0.614
 Vibration    31          0.918              1.112              0.518
 Vibration    32          0.938              1.071              0.482
 Vibration    33          0.939              1.070              0.482

 Normal termination of Gaussian 09 at Tue Feb 19 19:30:37 2019.
