 Gaussian 09, Revision E.01,

 ----------------------------------------------------------------------
 # M062X/Gen 6D SCF=Tight INT(grid=ultrafine) OPT IOP(2/17=4) SCRF=(SMD
 ,Solvent=h2o) maxdisk=1610612736
 ----------------------------------------------------------------------

 -----------------------------------------
 3Methyl4Chloro_a1.M062X_6-31pGd_opt_water
 -----------------------------------------
 Symbolic Z-matrix:
 Charge = -1 Multiplicity = 1

 SCF Done:  E(RM062X) =  -1072.39675887     A.U. after   15 cycles
 SCF Done:  E(RM062X) =  -1072.41245706     A.U. after   14 cycles
 SCF Done:  E(RM062X) =  -1072.41264015     A.U. after   15 cycles
 SCF Done:  E(RM062X) =  -1072.41358280     A.U. after   13 cycles
 SCF Done:  E(RM062X) =  -1072.41359427     A.U. after   12 cycles
 SCF Done:  E(RM062X) =  -1072.41370828     A.U. after   13 cycles
 SCF Done:  E(RM062X) =  -1072.41353583     A.U. after   16 cycles
 SCF Done:  E(RM062X) =  -1072.41375482     A.U. after   12 cycles
 SCF Done:  E(RM062X) =  -1072.41384199     A.U. after   13 cycles
 SCF Done:  E(RM062X) =  -1072.41390339     A.U. after   13 cycles
 SCF Done:  E(RM062X) =  -1072.41816318     A.U. after   13 cycles
 SCF Done:  E(RM062X) =  -1072.41817738     A.U. after   13 cycles
 SCF Done:  E(RM062X) =  -1072.41817997     A.U. after   12 cycles
 SCF Done:  E(RM062X) =  -1072.41818362     A.U. after   12 cycles
 SCF Done:  E(RM062X) =  -1072.41818519     A.U. after   11 cycles
 SCF Done:  E(RM062X) =  -1072.41818578     A.U. after   11 cycles
 SCF Done:  E(RM062X) =  -1072.41818588     A.U. after    9 cycles
 SCF Done:  E(RM062X) =  -1072.41818593     A.U. after    8 cycles
 Optimization completed.
    -- Stationary point found.
 Normal termination of Gaussian 09 at Tue Oct 30 13:55:05 2018.
 Gaussian 09:  ES64L-G09RevE.01 30-Nov-2015

 ----------------------------------------------------------------------
 # M062X/Gen 6D SCF=Tight INT(grid=ultrafine) OPT IOP(2/17=4) SCRF=(SMD
 ,Solvent=h2o) Freq=Noraman maxdisk=1610612736 geom=check guess=read IO
 P(2/17=4)
 ----------------------------------------------------------------------

 -----------------------------------------
 3Methyl4Chloro_a1.M062X_6-31pGd_opt_water
 -----------------------------------------
 Structure from the checkpoint file:  "3Methyl4Chloro_a1.M062X_6-31pGd_opt_water.chk"
 Charge = -1 Multiplicity = 1

 SCF Done:  E(RM062X) =  -1072.41818593     A.U. after    1 cycles
 Optimization completed.
    -- Stationary point found.
 Normal termination of Gaussian 09 at Tue Oct 30 13:55:53 2018.

 ----------------------------------------------------------------------
 #N Geom=AllCheck Guess=TCheck SCRF=Check Test GenChk RM062X/ChkBas Fre
 q
 ----------------------------------------------------------------------

 Structure from the checkpoint file:  "3Methyl4Chloro_a1.M062X_6-31pGd_opt_water.chk"
 -----------------------------------------
 3Methyl4Chloro_a1.M062X_6-31pGd_opt_water
 -----------------------------------------
 Charge = -1 Multiplicity = 1

                         Standard orientation:
 ---------------------------------------------------------------------
 Center     Atomic      Atomic             Coordinates (Angstroms)
 Number     Number       Type             X           Y           Z
 ---------------------------------------------------------------------
      1          6           0        6.655427    0.257669    0.427545
      2          6           0        5.447682   -0.199573   -0.385009
      3          6           0        4.141083    0.230247    0.266414
      4          7           0        2.999053   -0.224081   -0.519379
      5          6           0        1.708493   -0.013921   -0.026830
      6          8           0        1.539382    0.954354    0.778963
      7          7           0        0.802420   -0.887239   -0.467442
      8          6           0       -0.546457   -0.644443   -0.242488
      9          6           0       -1.156904    0.623710   -0.355791
     10          6           0       -1.395754   -1.738250    0.018204
     11          6           0       -2.767166   -1.570044    0.176190
     12          6           0       -3.321221   -0.298833    0.069706
     13          6           0       -2.530977    0.823092   -0.204034
     14          1           0        7.591946   -0.051057   -0.046989
     15          1           0        6.633313   -0.168104    1.437018
     16          1           0        6.671036    1.349200    0.524098
     17          1           0        5.459744   -1.292853   -0.485734
     18          1           0        5.499027    0.215642   -1.399043
     19          1           0        4.110936    1.321819    0.338668
     20          1           0        4.097260   -0.162128    1.294573
     21          1           0        3.115536   -1.155751   -0.905524
     22          1           0       -0.537160    1.486213   -0.583981
     23          1           0       -0.964400   -2.732628    0.097588
     24          1           0       -3.404462   -2.425104    0.383212
     25          6           0       -3.126488    2.198558   -0.341613
     26         17           0       -5.058514   -0.112701    0.278711
     27          1           0       -3.867640    2.231558   -1.147789
     28          1           0       -2.345607    2.930729   -0.560711
     29          1           0       -3.636477    2.503516    0.578806
 ---------------------------------------------------------------------

 SCF Done:  E(RM062X) =  -1072.41818593     A.U. after    1 cycles

 The electronic state is 1-A.
 Alpha  occ. eigenvalues -- -102.66650 -19.59019 -14.75183 -14.70692 -10.64303
 Alpha  occ. eigenvalues --  -10.59787 -10.57633 -10.56450 -10.56168 -10.55444
 Alpha  occ. eigenvalues --  -10.53952 -10.53900 -10.53593 -10.53514 -10.52662
 Alpha  occ. eigenvalues --   -9.81299  -7.53679  -7.53061  -7.53047  -1.13128
 Alpha  occ. eigenvalues --   -1.00384  -0.99343  -0.96975  -0.91103  -0.86906
 Alpha  occ. eigenvalues --   -0.86294  -0.80542  -0.77093  -0.75208  -0.68791
 Alpha  occ. eigenvalues --   -0.66989  -0.65786  -0.61738  -0.57870  -0.54917
 Alpha  occ. eigenvalues --   -0.54435  -0.53339  -0.52248  -0.50199  -0.49427
 Alpha  occ. eigenvalues --   -0.48920  -0.47614  -0.46713  -0.45280  -0.44737
 Alpha  occ. eigenvalues --   -0.44101  -0.43432  -0.42501  -0.41374  -0.40697
 Alpha  occ. eigenvalues --   -0.39892  -0.38801  -0.38526  -0.37013  -0.35219
 Alpha  occ. eigenvalues --   -0.32465  -0.30756  -0.29726  -0.28867  -0.23447
 Alpha virt. eigenvalues --    0.01969   0.02190   0.02831   0.03045   0.03690
 Alpha virt. eigenvalues --    0.04156   0.04501   0.04902   0.05384   0.06148
 Alpha virt. eigenvalues --    0.06288   0.07099   0.07552   0.07960   0.08141

 Mulliken charges:
               1
     1  C   -0.744399
     2  C   -0.345035
     3  C   -0.378603
     4  N   -0.616690
     5  C    0.780235
     6  O   -0.870687
     7  N   -0.670318
     8  C    0.169304
     9  C   -0.256341
    10  C   -0.393261
    11  C   -0.075780
    12  C    0.089606
    13  C   -0.411637
    14  H    0.219622
    15  H    0.219381
    16  H    0.218845
    17  H    0.220701
    18  H    0.226096
    19  H    0.221471
    20  H    0.204670
    21  H    0.425752
    22  H    0.230649
    23  H    0.235374
    24  H    0.253177
    25  C   -0.804466
    26  Cl   0.114326
    27  H    0.251060
    28  H    0.236737
    29  H    0.250207
 Sum of Mulliken charges =  -1.00000

 Dipole moment (field-independent basis, Debye):
    X=              0.5202    Y=             -0.9379    Z=             -1.2038  Tot=              1.6123
 Quadrupole moment (field-independent basis, Debye-Ang):
   XX=           -113.7336   YY=            -99.8334   ZZ=           -108.3265
   XY=             -7.5139   XZ=             -1.0630   YZ=             -5.4085

  Exact polarizability: 322.549   1.679 235.079 -10.593   2.107 169.416
 Approx polarizability: 247.363  -0.306 198.284 -10.265   1.603 145.328

                      1                      2                      3
                      A                      A                      A
 Frequencies --     28.6895                43.1825                50.5362
 Red. masses --      5.3888                 3.7845                 2.9714
 Frc consts  --      0.0026                 0.0042                 0.0045
 IR Inten    --      7.3669                 2.6094                 7.0026

                      4                      5                      6
                      A                      A                      A
 Frequencies --     82.5647                98.5563               113.1072
 Red. masses --      2.6180                 4.3804                 5.0068
 Frc consts  --      0.0105                 0.0251                 0.0377
 IR Inten    --      9.1969                 3.7335                 8.1757

                      7                      8                      9
                      A                      A                      A
 Frequencies --    152.1350               165.8988               176.8502
 Red. masses --      1.1522                 3.0796                 2.9523
 Frc consts  --      0.0157                 0.0499                 0.0544
 IR Inten    --      1.6262                 3.9131                 9.4536

                     10                     11                     12
                      A                      A                      A
 Frequencies --    230.7188               235.0223               242.6938
 Red. masses --      3.3070                 3.6461                 1.3640
 Frc consts  --      0.1037                 0.1187                 0.0473
 IR Inten    --      1.0317                 1.4068                 1.0636

                     13                     14                     15
                      A                      A                      A
 Frequencies --    258.7131               319.3147               337.4639
 Red. masses --      4.0519                 4.4570                 5.3424
 Frc consts  --      0.1598                 0.2678                 0.3585
 IR Inten    --      3.4742                 7.8417                16.1407

                     16                     17                     18
                      A                      A                      A
 Frequencies --    357.3735               406.3588               455.2868
 Red. masses --      5.6488                 5.5097                 2.9532
 Frc consts  --      0.4251                 0.5360                 0.3607
 IR Inten    --     14.7429                33.7380                 8.1678

                     19                     20                     21
                      A                      A                      A
 Frequencies --    467.2394               513.3740               554.7272
 Red. masses --      4.1603                 3.2440                 4.4646
 Frc consts  --      0.5351                 0.5037                 0.8094
 IR Inten    --     13.5805                26.8421                12.3294

                     22                     23                     24
                      A                      A                      A
 Frequencies --    585.6464               606.2048               684.8018
 Red. masses --      2.9266                 2.0580                 5.2953
 Frc consts  --      0.5914                 0.4456                 1.4631
 IR Inten    --     59.2511               206.8373                18.2153

                     25                     26                     27
                      A                      A                      A
 Frequencies --    708.2165               759.2862               765.3303
 Red. masses --      3.5208                 1.3000                 4.6638
 Frc consts  --      1.0405                 0.4416                 1.6095
 IR Inten    --     18.1886                49.2953                 7.1288

                     28                     29                     30
                      A                      A                      A
 Frequencies --    774.0754               796.4426               846.4462
 Red. masses --      3.0832                 4.7650                 1.5446
 Frc consts  --      1.0885                 1.7808                 0.6520
 IR Inten    --    127.1121                32.9157                61.6185

                     31                     32                     33
                      A                      A                      A
 Frequencies --    904.0654               908.0780               933.4130
 Red. masses --      1.5035                 1.1796                 1.6547
 Frc consts  --      0.7240                 0.5731                 0.8494
 IR Inten    --     35.4590                23.9004                 1.3412

                     34                     35                     36
                      A                      A                      A
 Frequencies --    973.2982               976.2259              1023.9791
 Red. masses --      1.3399                 2.9632                 3.5525
 Frc consts  --      0.7478                 1.6638                 2.1947
 IR Inten    --      0.5760                 4.8809                78.1871

                     37                     38                     39
                      A                      A                      A
 Frequencies --   1031.9221              1055.6893              1064.6024
 Red. masses --      1.8805                 4.3835                 1.5081
 Frc consts  --      1.1798                 2.8783                 1.0071
 IR Inten    --     18.8083                49.4484                 6.8669

                     40                     41                     42
                      A                      A                      A
 Frequencies --   1080.1100              1137.3821              1157.7564
 Red. masses --      2.4944                 2.1020                 1.3142
 Frc consts  --      1.7146                 1.6021                 1.0378
 IR Inten    --     32.6268                75.7029                45.4356

                     43                     44                     45
                      A                      A                      A
 Frequencies --   1164.4251              1180.5389              1220.2562
 Red. masses --      1.9112                 2.2125                 1.9891
 Frc consts  --      1.5268                 1.8168                 1.7451
 IR Inten    --      2.7046               102.9847                19.7202

                     46                     47                     48
                      A                      A                      A
 Frequencies --   1267.8063              1281.9365              1300.2105
 Red. masses --      1.4930                 1.5251                 1.4648
 Frc consts  --      1.4139                 1.4767                 1.4590
 IR Inten    --      8.7012                64.2302               195.1482

                     49                     50                     51
                      A                      A                      A
 Frequencies --   1310.7239              1324.6510              1338.8397
 Red. masses --      8.6080                 1.1290                 1.5723
 Frc consts  --      8.7132                 1.1672                 1.6605
 IR Inten    --     33.9357                24.8568                19.7915

                     52                     53                     54
                      A                      A                      A
 Frequencies --   1392.9059              1420.8706              1424.5111
 Red. masses --      2.4094                 1.3559                 1.2852
 Frc consts  --      2.7542                 1.6128                 1.5365
 IR Inten    --    657.9778                66.7824                 0.3740

                     55                     56                     57
                      A                      A                      A
 Frequencies --   1434.4346              1448.7582              1472.7041
 Red. masses --      2.3241                 2.8998                 2.2342
 Frc consts  --      2.8175                 3.5860                 2.8550
 IR Inten    --     72.5775               625.6203               516.1148

                     58                     59                     60
                      A                      A                      A
 Frequencies --   1486.4876              1490.9319              1496.8973
 Red. masses --      1.0429                 1.0743                 1.2681
 Frc consts  --      1.3577                 1.4070                 1.6741
 IR Inten    --     15.0352                 6.3394                79.0199

                     61                     62                     63
                      A                      A                      A
 Frequencies --   1503.0947              1513.3392              1526.8338
 Red. masses --      1.0400                 1.1063                 2.6409
 Frc consts  --      1.3844                 1.4928                 3.6274
 IR Inten    --     10.7327                41.8648               549.7885

                     64                     65                     66
                      A                      A                      A
 Frequencies --   1532.8018              1561.8602              1637.2716
 Red. masses --      1.1320                 3.7320                 7.7630
 Frc consts  --      1.5670                 5.3638                12.2608
 IR Inten    --     55.6591              1537.2357                 7.5150

                     67                     68                     69
                      A                      A                      A
 Frequencies --   1664.9298              3030.6442              3066.8148
 Red. masses --      6.6154                 1.0713                 1.0612
 Frc consts  --     10.8043                 5.7972                 5.8808
 IR Inten    --    107.0462               112.6211                55.7204

                     70                     71                     72
                      A                      A                      A
 Frequencies --   3074.4489              3080.8123              3102.8567
 Red. masses --      1.0364                 1.0375                 1.0985
 Frc consts  --      5.7719                 5.8020                 6.2315
 IR Inten    --     42.9197                26.7081                21.4531

                     73                     74                     75
                      A                      A                      A
 Frequencies --   3125.4460              3141.4246              3142.9764
 Red. masses --      1.0953                 1.1016                 1.1034
 Frc consts  --      6.3036                 6.4053                 6.4222
 IR Inten    --     60.8688                17.0790               104.4181

                     76                     77                     78
                      A                      A                      A
 Frequencies --   3152.1830              3173.0029              3221.2854
 Red. masses --      1.1021                 1.1021                 1.0889
 Frc consts  --      6.4522                 6.5378                 6.6571
 IR Inten    --     53.8798                21.5066                13.9688

                     79                     80                     81
                      A                      A                      A
 Frequencies --   3230.2629              3237.2575              3593.2613
 Red. masses --      1.0906                 1.0956                 1.0764
 Frc consts  --      6.7049                 6.7646                 8.1886
 IR Inten    --     12.3482                 6.6034                42.1687

 - Thermochemistry -
 -------------------
 Temperature   298.150 Kelvin.  Pressure   1.00000 Atm.
 Atom     1 has atomic number  6 and mass  12.00000

 Molecular mass:   225.07947 amu.
 Principal axes and moments of inertia in atomic units:
                           1         2         3
     Eigenvalues --   899.63570********************
           X            0.99999  -0.00417   0.00348
           Y            0.00422   0.99987  -0.01562
           Z           -0.00342   0.01564   0.99987
 This molecule is an asymmetric top.
 Rotational symmetry number  1.
 Warning -- assumption of classical behavior for rotation
           may cause significant error
 Rotational temperatures (Kelvin)      0.09628     0.00811     0.00766
 Rotational constants (GHZ):           2.00608     0.16905     0.15968
 Zero-point vibrational energy     621062.1 (Joules/Mol)
                                  148.43741 (Kcal/Mol)
 Warning -- explicit consideration of  23 degrees of freedom as
           vibrations may cause significant error
 Vibrational temperatures:     41.28    62.13    72.71   118.79   141.80
          (Kelvin)            162.74   218.89   238.69   254.45   331.95
                              338.14   349.18   372.23   459.42   485.53
                              514.18   584.66   655.06   672.25   738.63
                              798.13   842.61   872.19   985.28  1018.96
                             1092.44  1101.14  1113.72  1145.90  1217.85
                             1300.75  1306.52  1342.97  1400.36  1404.57
                             1473.28  1484.70  1518.90  1531.72  1554.04
                             1636.44  1665.75  1675.35  1698.53  1755.67
                             1824.09  1844.42  1870.71  1885.84  1905.87
                             1926.29  2004.08  2044.31  2049.55  2063.83
                             2084.44  2118.89  2138.72  2145.12  2153.70
                             2162.62  2177.35  2196.77  2205.36  2247.17
                             2355.67  2395.46  4360.42  4412.46  4423.44
                             4432.60  4464.31  4496.81  4519.80  4522.04
                             4535.28  4565.24  4634.71  4647.62  4657.69
                             5169.90

 Zero-point correction=                           0.236550 (Hartree/Particle)
 Thermal correction to Energy=                    0.251940
 Thermal correction to Enthalpy=                  0.252884
 Thermal correction to Gibbs Free Energy=         0.192214
 Sum of electronic and zero-point Energies=          -1072.181636
 Sum of electronic and thermal Energies=             -1072.166246
 Sum of electronic and thermal Enthalpies=           -1072.165302
 Sum of electronic and thermal Free Energies=        -1072.225972

                     E (Thermal)             CV                S
                      KCal/Mol        Cal/Mol-Kelvin    Cal/Mol-Kelvin
 Total                  158.094             56.008            127.690
 Electronic               0.000              0.000              0.000
 Translational            0.889              2.981             42.136
 Rotational               0.889              2.981             33.051
 Vibrational            156.317             50.047             52.503
 Vibration     1          0.593              1.984              5.918
 Vibration     2          0.595              1.980              5.107
 Vibration     3          0.595              1.977              4.796
 Vibration     4          0.600              1.961              3.829
 Vibration     5          0.604              1.950              3.483
 Vibration     6          0.607              1.939              3.215
 Vibration     7          0.619              1.900              2.645
 Vibration     8          0.624              1.884              2.481
 Vibration     9          0.628              1.871              2.361
 Vibration    10          0.652              1.794              1.873
 Vibration    11          0.655              1.787              1.840
 Vibration    12          0.659              1.775              1.783
 Vibration    13          0.668              1.748              1.670
 Vibration    14          0.705              1.637              1.314
 Vibration    15          0.718              1.601              1.224
 Vibration    16          0.733              1.560              1.134
 Vibration    17          0.771              1.456              0.940
 Vibration    18          0.814              1.349              0.780
 Vibration    19          0.825              1.323              0.745
 Vibration    20          0.868              1.220              0.626
 Vibration    21          0.910              1.129              0.534
 Vibration    22          0.943              1.062              0.475
 Vibration    23          0.965              1.019              0.439

 Optimization completed.
    -- Stationary point found.
 Normal termination of Gaussian 09 at Tue Oct 30 14:28:51 2018.
