 Gaussian 09, Revision E.01,

 ----------------------------------------------------------------------
 # M062X/Gen 6D SCF=Tight INT(grid=ultrafine) OPT IOP(2/17=4) SCRF=(SMD
 ,Solvent=n-Pentadecane) maxdisk=2684354560
 ----------------------------------------------------------------------

 ------------------------------------------------
 3Methyl4Chloro_EtO.M062X_6-31pGd_opt_Pentadecane
 ------------------------------------------------
 Symbolic Z-matrix:
 Charge = -1 Multiplicity = 1

 SCF Done:  E(RM062X) =  -1340.67653282     A.U. after   16 cycles
 SCF Done:  E(RM062X) =  -1340.70902509     A.U. after   14 cycles
 SCF Done:  E(RM062X) =  -1340.71841324     A.U. after   15 cycles
 SCF Done:  E(RM062X) =  -1340.72034162     A.U. after   13 cycles
 SCF Done:  E(RM062X) =  -1340.72099185     A.U. after   15 cycles
 SCF Done:  E(RM062X) =  -1340.71947870     A.U. after   16 cycles
 SCF Done:  E(RM062X) =  -1340.72130649     A.U. after   11 cycles
 SCF Done:  E(RM062X) =  -1340.72157164     A.U. after   13 cycles
 SCF Done:  E(RM062X) =  -1340.72161215     A.U. after   12 cycles
 SCF Done:  E(RM062X) =  -1340.72161495     A.U. after   11 cycles
 SCF Done:  E(RM062X) =  -1340.72379923     A.U. after    9 cycles
 SCF Done:  E(RM062X) =  -1340.72379954     A.U. after    9 cycles
 SCF Done:  E(RM062X) =  -1340.72379972     A.U. after    9 cycles
 SCF Done:  E(RM062X) =  -1340.72379979     A.U. after    8 cycles
 SCF Done:  E(RM062X) =  -1340.72379984     A.U. after    8 cycles
 SCF Done:  E(RM062X) =  -1340.72379989     A.U. after    8 cycles
 SCF Done:  E(RM062X) =  -1340.72379992     A.U. after    8 cycles
 SCF Done:  E(RM062X) =  -1340.72379993     A.U. after    9 cycles
 Optimization completed.
    -- Stationary point found.
 Normal termination of Gaussian 09 at Tue Feb 19 15:44:29 2019.
 Gaussian 09:  ES64L-G09RevE.01 30-Nov-2015

 ----------------------------------------------------------------------
 # M062X/Gen 6D SCF=Tight INT(grid=ultrafine) OPT IOP(2/17=4) SCRF=(SMD
 ,Solvent=n-Pentadecane) Freq=Noraman maxdisk=2684354560 geom=check gue
 ss=read IOP(2/17=4)
 ----------------------------------------------------------------------

 ------------------------------------------------
 3Methyl4Chloro_EtO.M062X_6-31pGd_opt_Pentadecane
 ------------------------------------------------
 Structure from the checkpoint file:  "3Methyl4Chloro_EtO.M062X_6-31pGd_opt_Pentadecane.chk"
 Charge = -1 Multiplicity = 1

 SCF Done:  E(RM062X) =  -1340.72379993     A.U. after    1 cycles
 Optimization completed.
    -- Stationary point found.
 Normal termination of Gaussian 09 at Tue Feb 19 15:46:10 2019.

 ----------------------------------------------------------------------
 #N Geom=AllCheck Guess=TCheck SCRF=Check Test GenChk RM062X/ChkBas Fre
 q
 ----------------------------------------------------------------------

 Structure from the checkpoint file:  "3Methyl4Chloro_EtO.M062X_6-31pGd_opt_Pentadecane.chk"
 ------------------------------------------------
 3Methyl4Chloro_EtO.M062X_6-31pGd_opt_Pentadecane
 ------------------------------------------------
 Charge = -1 Multiplicity = 1

                         Standard orientation:
 ---------------------------------------------------------------------
 Center     Atomic      Atomic             Coordinates (Angstroms)
 Number     Number       Type             X           Y           Z
 ---------------------------------------------------------------------
      1          6           0        5.573118   -3.058038    0.008616
      2          6           0        4.571424   -1.906749    0.003313
      3          6           0        3.134223   -2.415257   -0.001954
      4          7           0        2.210687   -1.301192   -0.006332
      5          6           0        0.873429   -1.518733   -0.004953
      6          8           0        0.379126   -2.652444    0.000497
      7          7           0        0.131449   -0.350911   -0.010144
      8          6           0       -1.250439   -0.223059   -0.006634
      9          6           0       -2.155744   -1.296935    0.000386
     10          6           0       -1.762111    1.089511   -0.010361
     11          6           0       -3.130564    1.309460   -0.007260
     12          6           0       -4.006330    0.227597   -0.000144
     13          6           0       -3.538929   -1.086722    0.003783
     14          1           0        6.603791   -2.688227    0.012305
     15          1           0        5.449342   -3.693856   -0.876176
     16          1           0        5.442274   -3.691791    0.893880
     17          1           0        4.730433   -1.267921   -0.873636
     18          1           0        4.723183   -1.266349    0.880360
     19          1           0        2.957016   -3.048765    0.878772
     20          1           0        2.964257   -3.050746   -0.882815
     21          1           0        2.594388   -0.339554   -0.012764
     22          1           0        0.653005    0.546911   -0.012829
     23          1           0       -1.770640   -2.308045    0.003312
     24          1           0       -1.067423    1.925798   -0.015470
     25          1           0       -3.521285    2.322657   -0.010159
     26          6           0       -4.482599   -2.260193    0.011532
     27         17           0       -5.739800    0.542972    0.004017
     28          1           0       -5.131153   -2.241964    0.894704
     29          1           0       -3.923231   -3.198912    0.014178
     30          1           0       -5.135993   -2.249784   -0.868198
     31          8           0        3.371963    1.274429   -0.017070
     32          8           0        1.323089    2.186855   -0.008571
     33          6           0        2.581403    2.253820   -0.002606
     34          6           0        3.228585    3.646647    0.029761
     35          6           0        2.244614    4.808185   -0.000806
     36          1           0        3.924195    3.698949   -0.816968
     37          1           0        3.853690    3.687808    0.930867
     38          1           0        1.630017    4.775096   -0.905555
     39          1           0        2.769264    5.771014    0.024819
     40          1           0        1.562620    4.763967    0.853537
 ---------------------------------------------------------------------

 SCF Done:  E(RM062X) =  -1340.72379993     A.U. after    1 cycles

 The electronic state is 1-A.
 Alpha  occ. eigenvalues -- -102.62290 -19.53764 -19.52209 -19.51752 -14.71179
 Alpha  occ. eigenvalues --  -14.69591 -10.60685 -10.56830 -10.55227 -10.54300
 Alpha  occ. eigenvalues --  -10.51910 -10.51579 -10.50963 -10.49885 -10.49442
 Alpha  occ. eigenvalues --  -10.49103 -10.49100 -10.48894 -10.47700 -10.47514
 Alpha  occ. eigenvalues --   -9.76941  -7.49319  -7.48702  -7.48694  -1.09785
 Alpha  occ. eigenvalues --   -1.08303  -0.98674  -0.97972  -0.95210  -0.93605
 Alpha  occ. eigenvalues --   -0.87227  -0.82740  -0.82041  -0.79769  -0.76911
 Alpha  occ. eigenvalues --   -0.73261  -0.71304  -0.66131  -0.65202  -0.62959
 Alpha  occ. eigenvalues --   -0.61666  -0.59219  -0.55500  -0.53545  -0.51487
 Alpha  occ. eigenvalues --   -0.49745  -0.49467  -0.48249  -0.47113  -0.46346
 Alpha  occ. eigenvalues --   -0.45581  -0.45518  -0.44636  -0.44563  -0.43734
 Alpha  occ. eigenvalues --   -0.42485  -0.42084  -0.40861  -0.40737  -0.40424
 Alpha  occ. eigenvalues --   -0.39063  -0.39033  -0.38449  -0.37507  -0.36753
 Alpha  occ. eigenvalues --   -0.36083  -0.35859  -0.35614  -0.34525  -0.33966
 Alpha  occ. eigenvalues --   -0.33583  -0.32693  -0.29592  -0.27289  -0.25257
 Alpha  occ. eigenvalues --   -0.25114  -0.24411  -0.24177  -0.23945  -0.19466
 Alpha virt. eigenvalues --    0.05641   0.06963   0.07091   0.07132   0.07633
 Alpha virt. eigenvalues --    0.07708   0.08053   0.08448   0.09134   0.09285
 Alpha virt. eigenvalues --    0.09876   0.10437   0.10692   0.10736   0.11185

 Mulliken charges:
               1
     1  C   -0.800737
     2  C   -0.360957
     3  C   -0.117579
     4  N   -0.787321
     5  C    0.743061
     6  O   -0.634461
     7  N   -0.704064
     8  C   -0.195664
     9  C   -0.517008
    10  C   -0.096189
    11  C    0.187358
    12  C    0.161012
    13  C   -0.549176
    14  H    0.207052
    15  H    0.206730
    16  H    0.206689
    17  H    0.237145
    18  H    0.236827
    19  H    0.214282
    20  H    0.213990
    21  H    0.527247
    22  H    0.515795
    23  H    0.261916
    24  H    0.272577
    25  H    0.225858
    26  C   -0.631030
    27  Cl   0.108918
    28  H    0.236889
    29  H    0.224695
    30  H    0.236928
    31  O   -0.653252
    32  O   -0.693830
    33  C    0.709927
    34  C   -0.523488
    35  C   -0.720255
    36  H    0.215405
    37  H    0.216011
    38  H    0.216268
    39  H    0.184692
    40  H    0.217738
 Sum of Mulliken charges =  -1.00000

 Dipole moment (field-independent basis, Debye):
    X=             -1.7751    Y=             -0.9118    Z=              0.0586  Tot=              1.9965
 Quadrupole moment (field-independent basis, Debye-Ang):
   XX=           -174.3310   YY=           -152.1801   ZZ=           -134.1986
   XY=             -4.0391   XZ=              0.1600   YZ=              0.0862

  Exact polarizability: 326.776 -12.206 249.392  -0.077  -0.026 147.308
 Approx polarizability: 298.104  -8.385 252.853  -0.222  -0.085 172.280

                      1                      2                      3
                      A                      A                      A
 Frequencies --     13.5553                18.0787                37.9807
 Red. masses --      2.8099                 2.2219                 5.5451
 Frc consts  --      0.0003                 0.0004                 0.0047
 IR Inten    --      2.5667                 1.1799                 0.2838

                      4                      5                      6
                      A                      A                      A
 Frequencies --     41.0904                47.2444                50.6108
 Red. masses --      2.9897                 2.7135                 6.0602
 Frc consts  --      0.0030                 0.0036                 0.0091
 IR Inten    --      0.0579                 0.1016                 2.0218

                      7                      8                      9
                      A                      A                      A
 Frequencies --     65.9461                69.5201                72.9260
 Red. masses --      4.7111                 8.4643                 3.4920
 Frc consts  --      0.0121                 0.0241                 0.0109
 IR Inten    --      5.4700                 0.5511                 0.1789

                     10                     11                     12
                      A                      A                      A
 Frequencies --     79.1136               113.0931               136.9768
 Red. masses --      4.7289                 6.5978                 4.6359
 Frc consts  --      0.0174                 0.0497                 0.0512
 IR Inten    --      5.7611                 6.6340                 0.0991

                     13                     14                     15
                      A                      A                      A
 Frequencies --    150.0703               177.1801               182.3149
 Red. masses --      6.1398                 2.6355                 1.2030
 Frc consts  --      0.0815                 0.0487                 0.0236
 IR Inten    --     26.6211                 2.8125                 2.7818

                     16                     17                     18
                      A                      A                      A
 Frequencies --    185.1693               221.9220               224.3416
 Red. masses --      4.9886                 2.5005                 1.1452
 Frc consts  --      0.1008                 0.0726                 0.0340
 IR Inten    --     17.1554                 2.7719                 1.1584

                     19                     20                     21
                      A                      A                      A
 Frequencies --    230.9828               236.2309               257.4464
 Red. masses --      5.7031                 1.1548                 4.8901
 Frc consts  --      0.1793                 0.0380                 0.1910
 IR Inten    --      0.6174                 0.0228                 4.1841

                     22                     23                     24
                      A                      A                      A
 Frequencies --    290.7500               306.3095               331.8392
 Red. masses --      4.0649                 4.2308                 6.8346
 Frc consts  --      0.2025                 0.2339                 0.4434
 IR Inten    --      4.7798                11.5505                 0.4982

                     25                     26                     27
                      A                      A                      A
 Frequencies --    349.4162               413.0887               449.3511
 Red. masses --      5.6124                 6.4667                 3.5629
 Frc consts  --      0.4037                 0.6502                 0.4239
 IR Inten    --     14.2602                22.1461                 0.8976

                     28                     29                     30
                      A                      A                      A
 Frequencies --    450.2674               520.0154               524.3617
 Red. masses --      3.0549                 5.6245                 4.4219
 Frc consts  --      0.3649                 0.8961                 0.7163
 IR Inten    --      4.4983                23.0919                11.5920

                     31                     32                     33
                      A                      A                      A
 Frequencies --    563.5760               578.9850               582.6546
 Red. masses --      5.7386                 3.6359                 1.9650
 Frc consts  --      1.0739                 0.7181                 0.3930
 IR Inten    --     13.7325                 2.9133                 0.9770

                     34                     35                     36
                      A                      A                      A
 Frequencies --    657.4182               683.8623               712.2766
 Red. masses --      4.6225                 6.4567                 3.5694
 Frc consts  --      1.1771                 1.7791                 1.0669
 IR Inten    --     44.9023                19.0694                 0.7613

                     37                     38                     39
                      A                      A                      A
 Frequencies --    753.9532               763.0155               769.8437
 Red. masses --      1.3644                 1.6533                 5.8684
 Frc consts  --      0.4570                 0.5671                 2.0492
 IR Inten    --     24.9757                30.9616                10.9089

                     40                     41                     42
                      A                      A                      A
 Frequencies --    783.8362               800.5863               821.3040
 Red. masses --      6.3494                 1.5937                 1.4389
 Frc consts  --      2.2984                 0.6018                 0.5719
 IR Inten    --      6.8100                 0.2957                 8.9250

                     43                     44                     45
                      A                      A                      A
 Frequencies --    852.0934               889.2295               901.5274
 Red. masses --      1.3740                 4.0048                 1.1519
 Frc consts  --      0.5878                 1.8658                 0.5516
 IR Inten    --     12.2021                47.5182                19.1120

                     46                     47                     48
                      A                      A                      A
 Frequencies --    921.6378               927.4311               930.3948
 Red. masses --      1.3599                 1.6856                 1.0947
 Frc consts  --      0.6806                 0.8542                 0.5583
 IR Inten    --     56.3471                 7.9648                81.9799

                     49                     50                     51
                      A                      A                      A
 Frequencies --    986.1731               989.5005              1023.3458
 Red. masses --      2.7472                 1.2993                 1.6400
 Frc consts  --      1.5742                 0.7496                 1.0119
 IR Inten    --      7.0936                 5.0565                 4.8621

                     52                     53                     54
                      A                      A                      A
 Frequencies --   1037.7559              1052.1546              1060.5040
 Red. masses --      1.7471                 4.1185                 4.1972
 Frc consts  --      1.1085                 2.6863                 2.7812
 IR Inten    --      0.6469                28.0640                26.3194

                     55                     56                     57
                      A                      A                      A
 Frequencies --   1069.8875              1084.5967              1105.0984
 Red. masses --      1.4845                 2.5663                 1.7786
 Frc consts  --      1.0012                 1.7787                 1.2798
 IR Inten    --      2.7589                 2.4842                 0.7426

                     58                     59                     60
                      A                      A                      A
 Frequencies --   1113.2430              1155.7594              1184.6380
 Red. masses --      2.3646                 2.3778                 1.4245
 Frc consts  --      1.7266                 1.8714                 1.1778
 IR Inten    --      6.1041                10.2389                14.1294

                     61                     62                     63
                      A                      A                      A
 Frequencies --   1185.1050              1185.9314              1230.3428
 Red. masses --      1.6081                 2.5034                 2.3145
 Frc consts  --      1.3307                 2.0744                 2.0642
 IR Inten    --      0.2239                22.4831                12.0800

                     64                     65                     66
                      A                      A                      A
 Frequencies --   1279.7393              1284.4970              1285.8874
 Red. masses --      1.1888                 1.1873                 1.7884
 Frc consts  --      1.1471                 1.1541                 1.7423
 IR Inten    --      0.0220                 0.1270                52.1135

                     67                     68                     69
                      A                      A                      A
 Frequencies --   1299.4026              1320.9668              1328.9547
 Red. masses --      2.1703                 1.7865                 1.0769
 Frc consts  --      2.1590                 1.8367                 1.1206
 IR Inten    --    282.3685               120.1330                 0.1748

                     70                     71                     72
                      A                      A                      A
 Frequencies --   1334.7768              1367.4494              1381.6678
 Red. masses --      1.6648                 2.0256                 3.3898
 Frc consts  --      1.7475                 2.2316                 3.8127
 IR Inten    --     37.8514               351.6546               131.9890

                     73                     74                     75
                      A                      A                      A
 Frequencies --   1424.3016              1427.0358              1433.6913
 Red. masses --      1.3223                 1.4130                 1.2851
 Frc consts  --      1.5804                 1.6953                 1.5563
 IR Inten    --     23.1402                 7.9776                 5.2675

                     76                     77                     78
                      A                      A                      A
 Frequencies --   1435.9028              1466.6344              1472.2044
 Red. masses --      1.5011                 3.6038                 2.6964
 Frc consts  --      1.8236                 4.5673                 3.4433
 IR Inten    --      1.4772               152.9816               353.1148

                     79                     80                     81
                      A                      A                      A
 Frequencies --   1485.2375              1504.9727              1506.1823
 Red. masses --      1.4037                 1.0438                 1.0699
 Frc consts  --      1.8244                 1.3929                 1.4301
 IR Inten    --     73.1211                10.0518                10.1617

                     82                     83                     84
                      A                      A                      A
 Frequencies --   1510.4354              1511.3004              1519.6280
 Red. masses --      1.0413                 1.3338                 1.0395
 Frc consts  --      1.3997                 1.7949                 1.4144
 IR Inten    --      7.6359                25.1361                 8.4866

                     85                     86                     87
                      A                      A                      A
 Frequencies --   1521.1031              1524.0640              1540.4874
 Red. masses --      1.0983                 1.0716                 1.1422
 Frc consts  --      1.4973                 1.4666                 1.5970
 IR Inten    --     61.1424                 2.4812                85.6273

                     88                     89                     90
                      A                      A                      A
 Frequencies --   1544.0232              1620.6260              1635.6060
 Red. masses --      2.0029                 2.8347                 2.3200
 Frc consts  --      2.8133                 4.3865                 3.6567
 IR Inten    --    319.4505               111.9362                71.0196

                     91                     92                     93
                      A                      A                      A
 Frequencies --   1669.0896              1683.2459              1709.9244
 Red. masses --      4.7717                 4.1423                 3.6072
 Frc consts  --      7.8322                 6.9149                 6.2140
 IR Inten    --    253.3994               767.8315               818.8880

                     94                     95                     96
                      A                      A                      A
 Frequencies --   1772.8922              3046.6833              3068.0382
 Red. masses --      2.8841                 1.0578                 1.0367
 Frc consts  --      5.3411                 5.7850                 5.7492
 IR Inten    --    397.4856                95.4208                54.6076

                     97                     98                     99
                      A                      A                      A
 Frequencies --   3070.1078              3071.3260              3076.2079
 Red. masses --      1.0525                 1.1048                 1.0490
 Frc consts  --      5.8449                 6.1405                 5.8486
 IR Inten    --     52.1968                37.0064                68.8417

                    100                    101                    102
                      A                      A                      A
 Frequencies --   3078.2359              3087.2389              3107.7203
 Red. masses --      1.0374                 1.0606                 1.1013
 Frc consts  --      5.7914                 5.9558                 6.2668
 IR Inten    --     32.4665                23.3353                17.3212

                    103                    104                    105
                      A                      A                      A
 Frequencies --   3118.9132              3130.7378              3136.8301
 Red. masses --      1.1028                 1.0940                 1.1011
 Frc consts  --      6.3208                 6.3178                 6.3837
 IR Inten    --      0.2747               634.7648                15.6944

                    106                    107                    108
                      A                      A                      A
 Frequencies --   3141.1503              3141.2697              3143.6836
 Red. masses --      1.1040                 1.0974                 1.1011
 Frc consts  --      6.4178                 6.3801                 6.4112
 IR Inten    --     79.6559                15.5417                42.0162

                    109                    110                    111
                      A                      A                      A
 Frequencies --   3161.8713              3170.5985              3212.1758
 Red. masses --      1.1025                 1.1017                 1.0909
 Frc consts  --      6.4942                 6.5249                 6.6317
 IR Inten    --     43.1448                16.9287              1965.2913

                    112                    113                    114
                      A                      A                      A
 Frequencies --   3224.3145              3237.3475              3278.9002
 Red. masses --      1.0899                 1.0959                 1.0914
 Frc consts  --      6.6757                 6.7669                 6.9134
 IR Inten    --    128.1375                 9.2261                 7.2263

 - Thermochemistry -
 -------------------
 Temperature   298.150 Kelvin.  Pressure   1.00000 Atm.
 Atom     1 has atomic number  6 and mass  12.00000

 Molecular mass:   299.11625 amu.
 Principal axes and moments of inertia in atomic units:
                           1         2         3
     Eigenvalues --  4793.82658********************
           X            1.00000   0.00165   0.00009
           Y           -0.00165   1.00000   0.00003
           Z           -0.00009  -0.00003   1.00000
 This molecule is an asymmetric top.
 Rotational symmetry number  1.
 Warning -- assumption of classical behavior for rotation
           may cause significant error
 Rotational temperatures (Kelvin)      0.01807     0.00679     0.00496
 Rotational constants (GHZ):           0.37647     0.14156     0.10327
 Zero-point vibrational energy     867951.4 (Joules/Mol)
                                  207.44535 (Kcal/Mol)
 Warning -- explicit consideration of  33 degrees of freedom as
           vibrations may cause significant error
 Vibrational temperatures:     19.50    26.01    54.65    59.12    67.97
          (Kelvin)             72.82    94.88   100.02   104.92   113.83
                              162.72   197.08   215.92   254.92   262.31
                              266.42   319.30   322.78   332.33   339.88
                              370.41   418.32   440.71   477.44   502.73
                              594.34   646.52   647.83   748.19   754.44
                              810.86   833.03   838.31   945.88   983.92
                             1024.81  1084.77  1097.81  1107.63  1127.76
                             1151.86  1181.67  1225.97  1279.40  1297.10
                             1326.03  1334.36  1338.63  1418.88  1423.67
                             1472.36  1493.10  1513.81  1525.83  1539.33
                             1560.49  1589.99  1601.71  1662.88  1704.43
                             1705.10  1706.29  1770.19  1841.26  1848.10
                             1850.10  1869.55  1900.57  1912.07  1920.44
                             1967.45  1987.91  2049.25  2053.18  2062.76
                             2065.94  2110.16  2118.17  2136.92  2165.32
                             2167.06  2173.18  2174.42  2186.40  2188.53
                             2192.79  2216.42  2221.50  2331.72  2353.27
                             2401.44  2421.81  2460.20  2550.79  4383.49
                             4414.22  4417.19  4418.95  4425.97  4428.89
                             4441.84  4471.31  4487.41  4504.43  4513.19
                             4519.41  4519.58  4523.05  4549.22  4561.78
                             4621.60  4639.06  4657.82  4717.60

 Zero-point correction=                           0.330585 (Hartree/Particle)
 Thermal correction to Energy=                    0.353239
 Thermal correction to Enthalpy=                  0.354183
 Thermal correction to Gibbs Free Energy=         0.273766
 Sum of electronic and zero-point Energies=          -1340.393215
 Sum of electronic and thermal Energies=             -1340.370561
 Sum of electronic and thermal Enthalpies=           -1340.369617
 Sum of electronic and thermal Free Energies=        -1340.450034

                     E (Thermal)             CV                S
                      KCal/Mol        Cal/Mol-Kelvin    Cal/Mol-Kelvin
 Total                  221.661             79.092            169.251
 Electronic               0.000              0.000              0.000
 Translational            0.889              2.981             42.984
 Rotational               0.889              2.981             35.323
 Vibrational            219.883             73.130             90.944
 Vibration     1          0.593              1.986              7.407
 Vibration     2          0.593              1.986              6.835
 Vibration     3          0.594              1.982              5.362
 Vibration     4          0.594              1.981              5.206
 Vibration     5          0.595              1.979              4.930
 Vibration     6          0.595              1.977              4.793
 Vibration     7          0.597              1.971              4.271
 Vibration     8          0.598              1.969              4.167
 Vibration     9          0.599              1.967              4.073
 Vibration    10          0.600              1.963              3.913
 Vibration    11          0.607              1.939              3.215
 Vibration    12          0.614              1.916              2.846
 Vibration    13          0.618              1.903              2.671
 Vibration    14          0.628              1.870              2.358
 Vibration    15          0.630              1.864              2.305
 Vibration    16          0.631              1.860              2.276
 Vibration    17          0.648              1.808              1.943
 Vibration    18          0.649              1.804              1.924
 Vibration    19          0.653              1.794              1.871
 Vibration    20          0.655              1.785              1.831
 Vibration    21          0.667              1.750              1.679
 Vibration    22          0.687              1.691              1.470
 Vibration    23          0.697              1.662              1.382
 Vibration    24          0.714              1.612              1.251
 Vibration    25          0.727              1.576              1.169
 Vibration    26          0.777              1.442              0.916
 Vibration    27          0.808              1.362              0.798
 Vibration    28          0.809              1.360              0.795
 Vibration    29          0.875              1.206              0.610
 Vibration    30          0.879              1.196              0.600
 Vibration    31          0.919              1.110              0.517
 Vibration    32          0.936              1.077              0.487
 Vibration    33          0.939              1.069              0.480

 Normal termination of Gaussian 09 at Tue Feb 19 17:20:42 2019.
