 Gaussian 09, Revision E.01,

 ----------------------------------------------------------------------
 # M062X/Gen 6D SCF=Tight INT(grid=ultrafine) OPT=CalcFC IOP(2/17=4) SC
 RF=(SMD,Solvent=h2o) maxdisk=3221225472
 ----------------------------------------------------------------------

 --------------------------------------
 3SF5Chloro_EtO.M062X_6-31pGd_opt_water
 --------------------------------------
 Symbolic Z-matrix:
 Charge = -1 Multiplicity = 1

 SCF Done:  E(RM062X) =  -2197.87967317     A.U. after   17 cycles
 SCF Done:  E(RM062X) =  -2197.88136424     A.U. after   16 cycles
 SCF Done:  E(RM062X) =  -2197.91881739     A.U. after   13 cycles
 SCF Done:  E(RM062X) =  -2197.95051217     A.U. after   15 cycles
 SCF Done:  E(RM062X) =  -2197.95858035     A.U. after   16 cycles
 SCF Done:  E(RM062X) =  -2197.87646581     A.U. after   16 cycles
 SCF Done:  E(RM062X) =  -2197.95995945     A.U. after   12 cycles
 SCF Done:  E(RM062X) =  -2197.96460954     A.U. after   17 cycles
 SCF Done:  E(RM062X) =  -2197.92949780     A.U. after   15 cycles
 SCF Done:  E(RM062X) =  -2197.96491342     A.U. after   10 cycles
 SCF Done:  E(RM062X) =  -2197.97367604     A.U. after   11 cycles
 SCF Done:  E(RM062X) =  -2197.97367964     A.U. after   11 cycles
 SCF Done:  E(RM062X) =  -2197.97367995     A.U. after   11 cycles
 SCF Done:  E(RM062X) =  -2197.97368004     A.U. after    9 cycles
 SCF Done:  E(RM062X) =  -2197.97368005     A.U. after    8 cycles
 SCF Done:  E(RM062X) =  -2197.97368005     A.U. after    7 cycles
 SCF Done:  E(RM062X) =  -2197.97368006     A.U. after    8 cycles
 SCF Done:  E(RM062X) =  -2197.97368008     A.U. after    8 cycles
 SCF Done:  E(RM062X) =  -2197.97368009     A.U. after    8 cycles
 Optimization completed.
    -- Stationary point found.
 Normal termination of Gaussian 09 at Tue Feb 26 14:33:13 2019.
 Gaussian 09:  ES64L-G09RevE.01 30-Nov-2015

 ----------------------------------------------------------------------
 # M062X/Gen 6D SCF=Tight INT(grid=ultrafine) SCRF=(SMD,Solvent=h2o) Fr
 eq=Noraman maxdisk=3221225472 geom=check guess=read IOP(2/17=4)
 ----------------------------------------------------------------------

 --------------------------------------
 3SF5Chloro_EtO.M062X_6-31pGd_opt_water
 --------------------------------------
 Structure from the checkpoint file:  "3SF5Chloro_EtO.M062X_6-31pGd_opt_water.chk"
 Charge = -1 Multiplicity = 1

                         Standard orientation:
 ---------------------------------------------------------------------
 Center     Atomic      Atomic             Coordinates (Angstroms)
 Number     Number       Type             X           Y           Z
 ---------------------------------------------------------------------
      1          6           0        5.563375   -4.326350    0.323924
      2          6           0        4.944213   -2.945749    0.131212
      3          6           0        3.438278   -2.984307    0.347175
      4          7           0        2.869210   -1.656096    0.168572
      5          6           0        1.544922   -1.451703    0.285949
      6          8           0        0.743460   -2.359892    0.571745
      7          7           0        1.155770   -0.140164    0.076706
      8          6           0       -0.141362    0.353007    0.132242
      9          6           0       -1.282263   -0.444271   -0.047531
     10          6           0       -0.294905    1.734446    0.333570
     11          6           0       -1.562991    2.291042    0.361177
     12          6           0       -2.717851    1.530744    0.204669
     13          6           0       -2.524054    0.171218    0.002701
     14          1           0        6.645680   -4.297761    0.166383
     15          1           0        5.138814   -5.047955   -0.382924
     16          1           0        5.379750   -4.699789    1.337512
     17          1           0        5.155004   -2.577482   -0.880500
     18          1           0        5.392332   -2.231006    0.832579
     19          1           0        3.213598   -3.347092    1.357517
     20          1           0        2.976790   -3.685164   -0.360042
     21          1           0        3.480940   -0.895519   -0.158201
     22          1           0        1.908887    0.567859    0.045962
     23          1           0       -1.183110   -1.504756   -0.228482
     24          1           0        0.582301    2.359614    0.470622
     25          1           0       -3.700481    1.986327    0.238963
     26         16           0       -3.992202   -0.870208   -0.220984
     27          9           0       -3.430401   -2.023128    0.760439
     28          9           0       -3.356499   -1.643956   -1.488203
     29          9           0       -4.764375   -0.191038    1.025440
     30         17           0       -1.723019    4.010057    0.614228
     31          9           0       -5.302643   -1.795645   -0.419511
     32          9           0       -4.691475    0.186891   -1.222966
     33          8           0        4.663295    0.397506   -0.787112
     34          8           0        3.189037    1.851355    0.054336
     35          6           0        4.316484    1.566855   -0.442678
     36          6           0        5.338942    2.679685   -0.649688
     37          6           0        4.877365    4.068104   -0.230631
     38          1           0        5.614645    2.665445   -1.711015
     39          1           0        6.242652    2.388175   -0.101010
     40          1           0        4.627764    4.097986    0.834466
     41          1           0        3.990593    4.377127   -0.792636
     42          1           0        5.666841    4.803988   -0.413346
 ---------------------------------------------------------------------

 SCF Done:  E(RM062X) =  -2197.97368009     A.U. after    1 cycles

 The electronic state is 1-A.
 Alpha  occ. eigenvalues -- -102.68287 -90.33326 -25.31256 -25.31255 -25.31255
 Alpha  occ. eigenvalues --  -25.31246 -25.31131 -19.61919 -19.60713 -19.60303
 Alpha  occ. eigenvalues --  -14.79079 -14.77288 -10.68664 -10.65094 -10.63526
 Alpha  occ. eigenvalues --  -10.62552 -10.62020 -10.58472 -10.57884 -10.57669
 Alpha  occ. eigenvalues --  -10.57223 -10.53858 -10.53634 -10.52781 -10.52597
 Alpha  occ. eigenvalues --   -9.82948  -8.61990  -7.55352  -7.54691  -7.54671
 Alpha  occ. eigenvalues --   -6.54418  -6.54407  -6.53964  -1.50015  -1.40237
 Alpha  occ. eigenvalues --   -1.40190  -1.37162  -1.35797  -1.17680  -1.16547
 Alpha  occ. eigenvalues --   -1.06780  -1.05961  -1.02839  -1.00819  -0.97134
 Alpha  occ. eigenvalues --   -0.92628  -0.88145  -0.86038  -0.85742  -0.84884
 Alpha  occ. eigenvalues --   -0.77949  -0.75957  -0.74015  -0.73769  -0.72277
 Alpha  occ. eigenvalues --   -0.72064  -0.68130  -0.67864  -0.66565  -0.64182
 Alpha  occ. eigenvalues --   -0.63214  -0.62426  -0.61466  -0.60536  -0.59397
 Alpha  occ. eigenvalues --   -0.58529  -0.58226  -0.55684  -0.55575  -0.55464
 Alpha  occ. eigenvalues --   -0.55435  -0.55273  -0.55142  -0.53449  -0.53092
 Alpha  occ. eigenvalues --   -0.52767  -0.52736  -0.52573  -0.51744  -0.51588
 Alpha  occ. eigenvalues --   -0.51161  -0.50614  -0.50334  -0.49128  -0.48623
 Alpha  occ. eigenvalues --   -0.46467  -0.46315  -0.45983  -0.45457  -0.44356
 Alpha  occ. eigenvalues --   -0.43839  -0.42282  -0.41711  -0.41400  -0.39624
 Alpha  occ. eigenvalues --   -0.39510  -0.39128  -0.38990  -0.38292  -0.35807
 Alpha  occ. eigenvalues --   -0.33858  -0.32868  -0.32450  -0.32360  -0.32001
 Alpha  occ. eigenvalues --   -0.27857
 Alpha virt. eigenvalues --   -0.02013  -0.01502   0.00277   0.01302   0.02711
 Alpha virt. eigenvalues --    0.03261   0.03500   0.03836   0.04213   0.04361
 Alpha virt. eigenvalues --    0.04664   0.04737   0.05401   0.05412   0.05901

 Mulliken charges:
               1
     1  C   -0.832835
     2  C   -0.351860
     3  C   -0.146090
     4  N   -0.764239
     5  C    0.677452
     6  O   -0.739530
     7  N   -0.653388
     8  C    0.064326
     9  C   -0.422136
    10  C   -0.082441
    11  C    0.762730
    12  C   -1.025405
    13  C   -0.175071
    14  H    0.222935
    15  H    0.221451
    16  H    0.221370
    17  H    0.236611
    18  H    0.237367
    19  H    0.238771
    20  H    0.237957
    21  H    0.522812
    22  H    0.528236
    23  H    0.296943
    24  H    0.289675
    25  H    0.303437
    26  S    2.320334
    27  F   -0.501035
    28  F   -0.498040
    29  F   -0.495875
    30  Cl   0.191597
    31  F   -0.506376
    32  F   -0.495986
    33  O   -0.770548
    34  O   -0.781579
    35  C    0.750545
    36  C   -0.497589
    37  C   -0.739450
    38  H    0.245601
    39  H    0.245444
    40  H    0.222881
    41  H    0.222503
    42  H    0.218495
 Sum of Mulliken charges =  -1.00000

 Dipole moment (field-independent basis, Debye):
    X=             -4.7216    Y=              1.6094    Z=              0.1553  Tot=              4.9908
 Quadrupole moment (field-independent basis, Debye-Ang):
   XX=           -217.0899   YY=           -179.5523   ZZ=           -168.5120
   XY=            -14.8777   XZ=              5.0471   YZ=              1.0296

  Exact polarizability: 354.497 -23.056 347.839  -6.661  11.871 216.231
 Approx polarizability: 288.241 -14.925 288.799  -5.606  10.125 192.683

                      1                      2                      3
                      A                      A                      A
 Frequencies --     15.9464                20.4539                24.8094
 Red. masses --      7.3693                 4.3590                 4.3942
 Frc consts  --      0.0011                 0.0011                 0.0016
 IR Inten    --      0.2269                 2.2294                 0.5060

                      4                      5                      6
                      A                      A                      A
 Frequencies --     29.8037                36.4443                49.3352
 Red. masses --      5.0833                 8.1355                 6.5509
 Frc consts  --      0.0027                 0.0064                 0.0094
 IR Inten    --      0.4220                 3.8211                 2.7002

                      7                      8                      9
                      A                      A                      A
 Frequencies --     53.7518                56.5641                62.9909
 Red. masses --      5.0447                 2.9292                 2.9911
 Frc consts  --      0.0086                 0.0055                 0.0070
 IR Inten    --      7.5414                 2.7214                 4.3193

                     10                     11                     12
                      A                      A                      A
 Frequencies --     71.7222                84.1558                92.7376
 Red. masses --      3.5995                 4.3736                 7.2092
 Frc consts  --      0.0109                 0.0182                 0.0365
 IR Inten    --      0.5502                10.0767                 9.6769

                     13                     14                     15
                      A                      A                      A
 Frequencies --    101.9239               111.6502               138.4132
 Red. masses --      6.1206                 5.5809                13.2037
 Frc consts  --      0.0375                 0.0410                 0.1490
 IR Inten    --     13.0832                 8.1450                14.4899

                     16                     17                     18
                      A                      A                      A
 Frequencies --    161.1243               168.0881               190.0632
 Red. masses --      3.0275                 5.0992                 7.4094
 Frc consts  --      0.0463                 0.0849                 0.1577
 IR Inten    --     15.3203                18.9010                 0.2766

                     19                     20                     21
                      A                      A                      A
 Frequencies --    197.2363               237.6574               242.1005
 Red. masses --      8.1148                 5.3405                 1.1495
 Frc consts  --      0.1860                 0.1777                 0.0397
 IR Inten    --      2.9452                 9.8852                 0.4295

                     22                     23                     24
                      A                      A                      A
 Frequencies --    247.2080               249.4936               271.3652
 Red. masses --      1.0921                 4.7649                 8.9652
 Frc consts  --      0.0393                 0.1748                 0.3890
 IR Inten    --      1.8158                 2.5810                 4.5037

                     25                     26                     27
                      A                      A                      A
 Frequencies --    281.0623               305.3009               320.0066
 Red. masses --      7.2099                 4.1025                 6.8193
 Frc consts  --      0.3356                 0.2253                 0.4114
 IR Inten    --      2.3610                14.4143                13.2172

                     28                     29                     30
                      A                      A                      A
 Frequencies --    339.7428               344.8548               391.3105
 Red. masses --     18.6980                 5.0412                13.4400
 Frc consts  --      1.2716                 0.3532                 1.2125
 IR Inten    --      0.1123                30.0641                 5.9256

                     31                     32                     33
                      A                      A                      A
 Frequencies --    393.2436               448.8435               455.1063
 Red. masses --     13.0076                 8.5448                10.9585
 Frc consts  --      1.1851                 1.0142                 1.3373
 IR Inten    --      6.1239                 3.2797                 0.8670

                     34                     35                     36
                      A                      A                      A
 Frequencies --    457.5502               497.3141               519.9248
 Red. masses --      5.3538                 6.0351                 5.6488
 Frc consts  --      0.6604                 0.8794                 0.8997
 IR Inten    --      6.3293                 4.2230                30.2744

                     37                     38                     39
                      A                      A                      A
 Frequencies --    537.9620               557.2430               563.8791
 Red. masses --     13.5249                14.1667                 5.8832
 Frc consts  --      2.3062                 2.5918                 1.1021
 IR Inten    --     22.2970                19.1202                 3.0105

                     40                     41                     42
                      A                      A                      A
 Frequencies --    579.7266               586.1180               609.5290
 Red. masses --      1.9262                17.7103                18.1646
 Frc consts  --      0.3814                 3.5846                 3.9762
 IR Inten    --      1.1371               174.9570                 0.1649

                     43                     44                     45
                      A                      A                      A
 Frequencies --    612.1313               645.1878               651.8518
 Red. masses --      5.6617                 4.9789                 3.6179
 Frc consts  --      1.2499                 1.2211                 0.9057
 IR Inten    --      9.6765                38.8258               106.0621

                     46                     47                     48
                      A                      A                      A
 Frequencies --    659.5055               674.5522               680.7659
 Red. masses --      7.1675                 1.5805                 2.4276
 Frc consts  --      1.8368                 0.4237                 0.6629
 IR Inten    --     70.5442               101.9356                61.2610

                     49                     50                     51
                      A                      A                      A
 Frequencies --    743.2460               757.5794               764.5184
 Red. masses --      4.0737                 2.6044                 1.1995
 Frc consts  --      1.3259                 0.8807                 0.4131
 IR Inten    --    158.6898               138.6473                28.7621

                     52                     53                     54
                      A                      A                      A
 Frequencies --    788.6029               812.1974               819.4342
 Red. masses --      3.3552                 1.8926                 1.5063
 Frc consts  --      1.2294                 0.7356                 0.5959
 IR Inten    --     34.1406               141.4815                96.9583

                     55                     56                     57
                      A                      A                      A
 Frequencies --    853.9583               859.7372               870.1302
 Red. masses --     18.3656                18.6562                 3.7600
 Frc consts  --      7.8909                 8.1246                 1.6773
 IR Inten    --    694.6917               653.8728               173.1118

                     58                     59                     60
                      A                      A                      A
 Frequencies --    871.7447               887.0542               895.8624
 Red. masses --      2.1245                 3.8382                 1.5727
 Frc consts  --      0.9512                 1.7794                 0.7437
 IR Inten    --     74.5290                53.4296                37.7156

                     61                     62                     63
                      A                      A                      A
 Frequencies --    906.4629               915.0041               928.1555
 Red. masses --      1.1506                 1.3684                 1.7571
 Frc consts  --      0.5570                 0.6750                 0.8918
 IR Inten    --      2.3919                11.3200                39.5145

                     64                     65                     66
                      A                      A                      A
 Frequencies --    971.4533              1011.6043              1027.9940
 Red. masses --      5.5959                 5.7489                 1.6492
 Frc consts  --      3.1115                 3.4662                 1.0268
 IR Inten    --    116.0879                27.5872                15.5807

                     67                     68                     69
                      A                      A                      A
 Frequencies --   1053.4816              1086.6570              1109.3933
 Red. masses --      4.1670                 2.5523                 1.7791
 Frc consts  --      2.7248                 1.7757                 1.2901
 IR Inten    --     27.2577                17.6723                 2.0136

                     70                     71                     72
                      A                      A                      A
 Frequencies --   1112.5885              1146.1554              1157.9468
 Red. masses --      2.3425                 1.5275                 2.7204
 Frc consts  --      1.7084                 1.1823                 2.1492
 IR Inten    --     15.6405                22.3511                31.7251

                     73                     74                     75
                      A                      A                      A
 Frequencies --   1170.4179              1180.5331              1182.1375
 Red. masses --      1.6582                 2.6381                 2.0316
 Frc consts  --      1.3383                 2.1662                 1.6727
 IR Inten    --     67.0561                 4.2344                 3.7276

                     76                     77                     78
                      A                      A                      A
 Frequencies --   1280.4416              1286.3970              1291.3443
 Red. masses --      1.1980                 1.7711                 1.1698
 Frc consts  --      1.1572                 1.7268                 1.1494
 IR Inten    --      3.2413               209.5515                 0.5535

                     79                     80                     81
                      A                      A                      A
 Frequencies --   1310.4890              1326.1347              1327.0405
 Red. masses --      1.4564                 2.2148                 1.0799
 Frc consts  --      1.4737                 2.2949                 1.1205
 IR Inten    --    360.4977                39.8081                 0.2026

                     82                     83                     84
                      A                      A                      A
 Frequencies --   1337.6786              1355.7741              1371.0851
 Red. masses --      1.7331                 1.7453                 3.9991
 Frc consts  --      1.8272                 1.8901                 4.4293
 IR Inten    --     83.9089               181.7691               295.3939

                     85                     86                     87
                      A                      A                      A
 Frequencies --   1420.5551              1421.4223              1430.6679
 Red. masses --      1.2850                 1.3160                 1.6715
 Frc consts  --      1.5278                 1.5666                 2.0157
 IR Inten    --      1.9660                38.7619                24.8325

                     88                     89                     90
                      A                      A                      A
 Frequencies --   1456.1509              1465.6229              1473.2545
 Red. masses --      1.3574                 2.9701                 2.7355
 Frc consts  --      1.6958                 3.7589                 3.4982
 IR Inten    --    171.4023                59.4161               293.3236

                     91                     92                     93
                      A                      A                      A
 Frequencies --   1490.9179              1501.4828              1503.6934
 Red. masses --      1.0592                 1.0396                 1.0400
 Frc consts  --      1.3872                 1.3809                 1.3854
 IR Inten    --      5.9687                11.0716                11.5339

                     94                     95                     96
                      A                      A                      A
 Frequencies --   1508.3354              1512.7180              1517.4955
 Red. masses --      1.1236                 1.0877                 3.5441
 Frc consts  --      1.5061                 1.4665                 4.8086
 IR Inten    --     82.3260                10.9302               488.1508

                     97                     98                     99
                      A                      A                      A
 Frequencies --   1531.1106              1555.0890              1595.2224
 Red. masses --      1.0944                 7.2078                 2.6143
 Frc consts  --      1.5117                10.2699                 3.9197
 IR Inten    --     41.6284              1012.1394               194.4946

                    100                    101                    102
                      A                      A                      A
 Frequencies --   1611.2077              1659.9363              1680.0754
 Red. masses --      1.9597                 6.8661                 5.0075
 Frc consts  --      2.9974                11.1467                 8.3278
 IR Inten    --   1623.6090               431.5903                12.7541

                    103                    104                    105
                      A                      A                      A
 Frequencies --   1711.3949              3069.1259              3075.7343
 Red. masses --      2.5174                 1.0588                 1.0467
 Frc consts  --      4.3441                 5.8760                 5.8338
 IR Inten    --    732.4203                26.3286                15.9013

                    106                    107                    108
                      A                      A                      A
 Frequencies --   3077.0873              3084.1115              3085.5935
 Red. masses --      1.0490                 1.0431                 1.0549
 Frc consts  --      5.8519                 5.8459                 5.9173
 IR Inten    --    132.3488                58.0234                 9.3972

                    109                    110                    111
                      A                      A                      A
 Frequencies --   3100.3724              3120.4099              3121.3812
 Red. masses --      1.1041                 1.1064                 1.1016
 Frc consts  --      6.2529                 6.3473                 6.3236
 IR Inten    --      8.9044                57.1800                 8.2673

                    112                    113                    114
                      A                      A                      A
 Frequencies --   3145.8598              3154.0437              3155.4383
 Red. masses --      1.1039                 1.1024                 1.1022
 Frc consts  --      6.4364                 6.4611                 6.4658
 IR Inten    --     95.4452                57.6769                48.5327

                    115                    116                    117
                      A                      A                      A
 Frequencies --   3160.0062              3205.1676              3254.5601
 Red. masses --      1.1036                 1.0900                 1.0931
 Frc consts  --      6.4930                 6.5975                 6.8214
 IR Inten    --     57.3232              1196.9682                 8.4321

                    118                    119                    120
                      A                      A                      A
 Frequencies --   3271.8836              3303.4083              3310.3026
 Red. masses --      1.0943                 1.0928                 1.0874
 Frc consts  --      6.9021                 7.0263                 7.0208
 IR Inten    --     22.2080                45.3831              1506.8016

 - Thermochemistry -
 -------------------
 Temperature   298.150 Kelvin.  Pressure   1.00000 Atm.
 Atom     1 has atomic number  6 and mass  12.00000

 Molecular mass:   411.05686 amu.
 Principal axes and moments of inertia in atomic units:
                           1         2         3
     Eigenvalues --  7922.98417********************
           X            0.99986  -0.01689  -0.00133
           Y            0.01688   0.99982  -0.00847
           Z            0.00147   0.00845   0.99996
 This molecule is an asymmetric top.
 Rotational symmetry number  1.
 Warning -- assumption of classical behavior for rotation
           may cause significant error
 Rotational temperatures (Kelvin)      0.01093     0.00442     0.00329
 Rotational constants (GHZ):           0.22779     0.09218     0.06848
 Zero-point vibrational energy     810703.4 (Joules/Mol)
                                  193.76276 (Kcal/Mol)
 Warning -- explicit consideration of  43 degrees of freedom as
           vibrations may cause significant error
 Vibrational temperatures:     22.94    29.43    35.70    42.88    52.44
          (Kelvin)             70.98    77.34    81.38    90.63   103.19
                              121.08   133.43   146.65   160.64   199.15
                              231.82   241.84   273.46   283.78   341.94
                              348.33   355.68   358.97   390.43   404.39
                              439.26   460.42   488.81   496.17   563.01
                              565.79   645.78   654.80   658.31   715.52
                              748.05   774.01   801.75   811.30   834.10
                              843.29   876.98   880.72   928.28   937.87
                              948.88   970.53   979.47  1069.36  1089.99
                             1099.97  1134.62  1168.57  1178.98  1228.65
                             1236.97  1251.92  1254.24  1276.27  1288.94
                             1304.20  1316.49  1335.41  1397.70  1455.47
                             1479.05  1515.72  1563.46  1596.17  1600.76
                             1649.06  1666.03  1683.97  1698.52  1700.83
                             1842.27  1850.84  1857.95  1885.50  1908.01
                             1909.31  1924.62  1950.65  1972.68  2043.86
                             2045.11  2058.41  2095.07  2108.70  2119.68
                             2145.10  2160.30  2163.48  2170.16  2176.46
                             2183.33  2202.92  2237.42  2295.17  2318.17
                             2388.28  2417.25  2462.31  4415.78  4425.29
                             4427.24  4437.34  4439.48  4460.74  4489.57
                             4490.97  4526.18  4537.96  4539.97  4546.54
                             4611.52  4682.58  4707.50  4752.86  4762.78

 Zero-point correction=                           0.308781 (Hartree/Particle)
 Thermal correction to Energy=                    0.335777
 Thermal correction to Enthalpy=                  0.336721
 Thermal correction to Gibbs Free Energy=         0.246169
 Sum of electronic and zero-point Energies=          -2197.664899
 Sum of electronic and thermal Energies=             -2197.637903
 Sum of electronic and thermal Enthalpies=           -2197.636959
 Sum of electronic and thermal Free Energies=        -2197.727511

                     E (Thermal)             CV                S
                      KCal/Mol        Cal/Mol-Kelvin    Cal/Mol-Kelvin
 Total                  210.703             96.273            190.583
 Electronic               0.000              0.000              0.000
 Translational            0.889              2.981             43.932
 Rotational               0.889              2.981             36.656
 Vibrational            208.926             90.311            109.995
 Vibration     1          0.593              1.986              7.084
 Vibration     2          0.593              1.986              6.590
 Vibration     3          0.593              1.985              6.206
 Vibration     4          0.594              1.984              5.842
 Vibration     5          0.594              1.982              5.444
 Vibration     6          0.595              1.978              4.844
 Vibration     7          0.596              1.976              4.674
 Vibration     8          0.596              1.975              4.574
 Vibration     9          0.597              1.972              4.361
 Vibration    10          0.598              1.967              4.106
 Vibration    11          0.601              1.960              3.792
 Vibration    12          0.602              1.954              3.601
 Vibration    13          0.604              1.948              3.417
 Vibration    14          0.607              1.940              3.240
 Vibration    15          0.614              1.915              2.826
 Vibration    16          0.622              1.890              2.537
 Vibration    17          0.625              1.882              2.457
 Vibration    18          0.633              1.854              2.227
 Vibration    19          0.637              1.844              2.159
 Vibration    20          0.656              1.783              1.820
 Vibration    21          0.658              1.776              1.787
 Vibration    22          0.661              1.767              1.750
 Vibration    23          0.662              1.764              1.734
 Vibration    24          0.675              1.726              1.588
 Vibration    25          0.681              1.709              1.527
 Vibration    26          0.696              1.664              1.388
 Vibration    27          0.706              1.635              1.310
 Vibration    28          0.720              1.596              1.213
 Vibration    29          0.723              1.586              1.190
 Vibration    30          0.759              1.489              0.995
 Vibration    31          0.760              1.485              0.988
 Vibration    32          0.808              1.363              0.799
 Vibration    33          0.813              1.350              0.780
 Vibration    34          0.816              1.344              0.773
 Vibration    35          0.853              1.256              0.665
 Vibration    36          0.875              1.206              0.610
 Vibration    37          0.893              1.166              0.570
 Vibration    38          0.913              1.124              0.529
 Vibration    39          0.920              1.109              0.516
 Vibration    40          0.936              1.075              0.486
 Vibration    41          0.943              1.061              0.474
 Vibration    42          0.968              1.012              0.434
 Vibration    43          0.971              1.006              0.429

 Optimization completed.
    -- Stationary point found.
 Normal termination of Gaussian 09 at Tue Feb 26 15:40:37 2019.
