 Gaussian 09, Revision E.01,

 ----------------------------------------------------------------------
 # M062X/Gen 6D SCF=Tight INT(grid=ultrafine) OPT IOP(2/17=4) SCRF=(SMD
 ,Solvent=n-Pentadecane) maxdisk=3221225472
 ----------------------------------------------------------------------

 --------------------------------------------
 3SF5Chloro_EtO.M062X_6-31pGd_opt_Pentadecane
 --------------------------------------------
 Symbolic Z-matrix:
 Charge = -1 Multiplicity = 1

 SCF Done:  E(RM062X) =  -2197.84931565     A.U. after   17 cycles
 SCF Done:  E(RM062X) =  -2197.90095075     A.U. after   13 cycles
 SCF Done:  E(RM062X) =  -2197.93315732     A.U. after   16 cycles
 SCF Done:  E(RM062X) =  -2197.93919826     A.U. after   13 cycles
 SCF Done:  E(RM062X) =  -2197.94103582     A.U. after   12 cycles
 SCF Done:  E(RM062X) =  -2197.94149553     A.U. after   12 cycles
 SCF Done:  E(RM062X) =  -2197.94238671     A.U. after   14 cycles
 SCF Done:  E(RM062X) =  -2197.94328466     A.U. after   16 cycles
 SCF Done:  E(RM062X) =  -2197.94472422     A.U. after   14 cycles
 SCF Done:  E(RM062X) =  -2197.94508199     A.U. after   13 cycles
 SCF Done:  E(RM062X) =  -2197.94516541     A.U. after   10 cycles
 SCF Done:  E(RM062X) =  -2197.94516608     A.U. after    9 cycles
 SCF Done:  E(RM062X) =  -2197.94516669     A.U. after    9 cycles
 SCF Done:  E(RM062X) =  -2197.94516701     A.U. after    8 cycles
 SCF Done:  E(RM062X) =  -2197.94516717     A.U. after    8 cycles
 SCF Done:  E(RM062X) =  -2197.94516727     A.U. after    8 cycles
 SCF Done:  E(RM062X) =  -2197.94516734     A.U. after    8 cycles
 SCF Done:  E(RM062X) =  -2197.94516736     A.U. after    7 cycles
 Optimization completed.
    -- Stationary point found.
 Normal termination of Gaussian 09 at Tue Feb 19 12:55:52 2019.
 Gaussian 09:  ES64L-G09RevE.01 30-Nov-2015

 ----------------------------------------------------------------------
 # M062X/Gen 6D SCF=Tight INT(grid=ultrafine) OPT IOP(2/17=4) SCRF=(SMD
 ,Solvent=n-Pentadecane) Freq=Noraman maxdisk=3221225472 geom=check gue
 ss=read IOP(2/17=4)
 ----------------------------------------------------------------------

 --------------------------------------------
 3SF5Chloro_EtO.M062X_6-31pGd_opt_Pentadecane
 --------------------------------------------
 Structure from the checkpoint file:  "3SF5Chloro_EtO.M062X_6-31pGd_opt_Pentadecane.chk"
 Charge = -1 Multiplicity = 1

 SCF Done:  E(RM062X) =  -2197.94516736     A.U. after    1 cycles
 Optimization completed.
    -- Stationary point found.
 Normal termination of Gaussian 09 at Tue Feb 19 12:57:12 2019.

 ----------------------------------------------------------------------
 #N Geom=AllCheck Guess=TCheck SCRF=Check Test GenChk RM062X/ChkBas Fre
 q
 ----------------------------------------------------------------------

 Structure from the checkpoint file:  "3SF5Chloro_EtO.M062X_6-31pGd_opt_Pentadecane.chk"
 --------------------------------------------
 3SF5Chloro_EtO.M062X_6-31pGd_opt_Pentadecane
 --------------------------------------------
 Charge = -1 Multiplicity = 1

                         Standard orientation:
 ---------------------------------------------------------------------
 Center     Atomic      Atomic             Coordinates (Angstroms)
 Number     Number       Type             X           Y           Z
 ---------------------------------------------------------------------
      1          6           0        5.653367   -4.322829   -0.040138
      2          6           0        5.011301   -2.939003   -0.077446
      3          6           0        3.491678   -3.024046   -0.000299
      4          7           0        2.917065   -1.694871   -0.028871
      5          6           0        1.576728   -1.532309   -0.014507
      6          8           0        0.778530   -2.474183    0.004654
      7          7           0        1.190903   -0.197059   -0.026676
      8          6           0       -0.093719    0.298233   -0.028826
      9          6           0       -1.256375   -0.497047    0.001078
     10          6           0       -0.226928    1.702833   -0.063065
     11          6           0       -1.485687    2.274307   -0.070376
     12          6           0       -2.656342    1.521128   -0.044590
     13          6           0       -2.485780    0.143607   -0.007864
     14          1           0        6.744597   -4.255461   -0.098588
     15          1           0        5.310781   -4.940248   -0.878969
     16          1           0        5.400114   -4.851082    0.886638
     17          1           0        5.295303   -2.414140   -0.997526
     18          1           0        5.380906   -2.326146    0.753330
     19          1           0        3.189160   -3.547276    0.918164
     20          1           0        3.101890   -3.615351   -0.839984
     21          1           0        3.550152   -0.874645   -0.017856
     22          1           0        1.941234    0.528923   -0.041691
     23          1           0       -1.165607   -1.573802    0.028711
     24          1           0        0.669461    2.317691   -0.082893
     25          1           0       -3.631379    1.991476   -0.051756
     26         16           0       -3.979703   -0.887690    0.033769
     27          9           0       -3.401896   -1.935258   -1.047441
     28          9           0       -4.688778   -0.052124   -1.159521
     29          9           0       -3.420181   -1.812066    1.231431
     30         17           0       -1.623410    4.019010   -0.112476
     31          9           0       -5.319775   -1.796155    0.071007
     32          9           0       -4.710127    0.068485    1.118556
     33          8           0        4.690718    0.499187    0.024235
     34          8           0        2.956770    1.918439   -0.041638
     35          6           0        4.189429    1.652589    0.017974
     36          6           0        5.174312    2.827186    0.079952
     37          6           0        4.522842    4.199490    0.183886
     38          1           0        5.803572    2.761638   -0.816961
     39          1           0        5.844463    2.643295    0.928298
     40          1           0        3.866207    4.384465   -0.670992
     41          1           0        5.279257    4.992735    0.218111
     42          1           0        3.907021    4.272993    1.085609
 ---------------------------------------------------------------------

 SCF Done:  E(RM062X) =  -2197.94516736     A.U. after    2 cycles

 The electronic state is 1-A.
 Alpha  occ. eigenvalues -- -102.63615 -90.28459 -25.26463 -25.26446 -25.26445
 Alpha  occ. eigenvalues --  -25.26429 -25.26310 -19.54897 -19.53064 -19.52529
 Alpha  occ. eigenvalues --  -14.72649 -14.70622 -10.61834 -10.58522 -10.57590
 Alpha  occ. eigenvalues --  -10.57139 -10.56995 -10.53494 -10.52302 -10.52204
 Alpha  occ. eigenvalues --  -10.52114 -10.49441 -10.49400 -10.48160 -10.47825
 Alpha  occ. eigenvalues --   -9.78276  -8.57134  -7.50675  -7.50022  -7.50006
 Alpha  occ. eigenvalues --   -6.49558  -6.49547  -6.49100  -1.45128  -1.35409
 Alpha  occ. eigenvalues --   -1.35339  -1.32289  -1.30975  -1.11060  -1.09129
 Alpha  occ. eigenvalues --   -1.00052  -0.99297  -0.96895  -0.95313  -0.92162
 Alpha  occ. eigenvalues --   -0.87489  -0.83367  -0.80888  -0.80225  -0.79693
 Alpha  occ. eigenvalues --   -0.73110  -0.70864  -0.69139  -0.68926  -0.66995
 Alpha  occ. eigenvalues --   -0.66584  -0.63065  -0.62717  -0.60706  -0.59342
 Alpha  occ. eigenvalues --   -0.57701  -0.57579  -0.55988  -0.55093  -0.53899
 Alpha  occ. eigenvalues --   -0.53710  -0.51681  -0.50760  -0.50648  -0.50499
 Alpha  occ. eigenvalues --   -0.50454  -0.50119  -0.49516  -0.48023  -0.47868
 Alpha  occ. eigenvalues --   -0.47497  -0.46839  -0.46793  -0.46375  -0.46335
 Alpha  occ. eigenvalues --   -0.45913  -0.44676  -0.43809  -0.43574  -0.43469
 Alpha  occ. eigenvalues --   -0.41519  -0.40974  -0.40816  -0.39663  -0.38978
 Alpha  occ. eigenvalues --   -0.38218  -0.37391  -0.37208  -0.36118  -0.35113
 Alpha  occ. eigenvalues --   -0.34713  -0.34364  -0.34056  -0.32949  -0.28550
 Alpha  occ. eigenvalues --   -0.27209  -0.25993  -0.25441  -0.25281  -0.24697
 Alpha  occ. eigenvalues --   -0.21722
 Alpha virt. eigenvalues --    0.02553   0.03672   0.05409   0.05702   0.06754
 Alpha virt. eigenvalues --    0.07372   0.07726   0.07866   0.08163   0.08389
 Alpha virt. eigenvalues --    0.08654   0.09139   0.09418   0.09540   0.10233

 Mulliken charges:
               1
     1  C   -0.805311
     2  C   -0.355681
     3  C   -0.111246
     4  N   -0.771698
     5  C    0.736803
     6  O   -0.626328
     7  N   -0.670930
     8  C   -0.380377
     9  C   -0.141632
    10  C   -0.214974
    11  C    0.542625
    12  C   -0.628258
    13  C   -0.193756
    14  H    0.208593
    15  H    0.207916
    16  H    0.208466
    17  H    0.234734
    18  H    0.238912
    19  H    0.217744
    20  H    0.219893
    21  H    0.528372
    22  H    0.514370
    23  H    0.307790
    24  H    0.301526
    25  H    0.261653
    26  S    2.328106
    27  F   -0.492665
    28  F   -0.497534
    29  F   -0.489966
    30  Cl   0.159513
    31  F   -0.510889
    32  F   -0.500238
    33  O   -0.652285
    34  O   -0.692742
    35  C    0.680123
    36  C   -0.497062
    37  C   -0.723100
    38  H    0.218677
    39  H    0.217607
    40  H    0.219815
    41  H    0.186672
    42  H    0.216761
 Sum of Mulliken charges =  -1.00000

 Dipole moment (field-independent basis, Debye):
    X=             -3.4663    Y=              0.2761    Z=              0.0055  Tot=              3.4773
 Quadrupole moment (field-independent basis, Debye-Ang):
   XX=           -226.1017   YY=           -189.0174   ZZ=           -166.5424
   XY=            -13.1157   XZ=              0.1406   YZ=              0.2573

  Exact polarizability: 314.801 -21.250 293.624   0.240  -1.790 158.381
 Approx polarizability: 296.949 -17.046 293.705   0.202  -2.416 188.877

                      1                      2                      3
                      A                      A                      A
 Frequencies --     15.5094                18.9192                26.8064
 Red. masses --      6.4931                 6.3838                 6.1915
 Frc consts  --      0.0009                 0.0013                 0.0026
 IR Inten    --      0.0199                 0.4602                 1.1430

                      4                      5                      6
                      A                      A                      A
 Frequencies --     34.5961                41.4150                45.1566
 Red. masses --      6.1759                 3.4962                 2.5194
 Frc consts  --      0.0044                 0.0035                 0.0030
 IR Inten    --      0.5416                 1.1712                 0.2996

                      7                      8                      9
                      A                      A                      A
 Frequencies --     47.3456                55.2462                58.6154
 Red. masses --      3.2729                 4.8553                 3.7930
 Frc consts  --      0.0043                 0.0087                 0.0077
 IR Inten    --      0.5248                 2.6271                 2.1405

                     10                     11                     12
                      A                      A                      A
 Frequencies --     76.8192                78.4652                98.6479
 Red. masses --      4.1685                 4.3335                 7.7640
 Frc consts  --      0.0145                 0.0157                 0.0445
 IR Inten    --      2.5994                 3.9004                 6.4154

                     13                     14                     15
                      A                      A                      A
 Frequencies --    102.5211               116.9487               143.3599
 Red. masses --      9.4729                 5.0700                14.6792
 Frc consts  --      0.0587                 0.0409                 0.1777
 IR Inten    --      3.6245                 3.3803                 8.2619

                     16                     17                     18
                      A                      A                      A
 Frequencies --    166.6842               185.3367               193.2631
 Red. masses --      3.1695                 5.2119                10.4734
 Frc consts  --      0.0519                 0.1055                 0.2305
 IR Inten    --      6.6942                28.6990                 1.2085

                     19                     20                     21
                      A                      A                      A
 Frequencies --    199.8684               226.1002               238.3810
 Red. masses --      6.1030                 1.1303                 1.2508
 Frc consts  --      0.1436                 0.0340                 0.0419
 IR Inten    --      0.6457                 0.7432                 0.7752

                     22                     23                     24
                      A                      A                      A
 Frequencies --    242.1048               245.0760               273.5723
 Red. masses --      4.7984                 4.0386                 8.0786
 Frc consts  --      0.1657                 0.1429                 0.3562
 IR Inten    --      8.3296                 0.4002                 3.1609

                     25                     26                     27
                      A                      A                      A
 Frequencies --    278.0163               307.6109               317.5787
 Red. masses --      7.7446                 4.2083                 6.7723
 Frc consts  --      0.3527                 0.2346                 0.4024
 IR Inten    --      0.0077                23.3198                15.3475

                     28                     29                     30
                      A                      A                      A
 Frequencies --    338.3918               346.0028               391.5678
 Red. masses --     18.7474                 5.0077                14.7607
 Frc consts  --      1.2648                 0.3532                 1.3334
 IR Inten    --      0.0157                24.0447                 4.9293

                     31                     32                     33
                      A                      A                      A
 Frequencies --    393.1572               444.3067               454.1018
 Red. masses --     12.1133                 7.7226                 7.8524
 Frc consts  --      1.1032                 0.8982                 0.9540
 IR Inten    --      2.1268                 1.7264                 1.7034

                     34                     35                     36
                      A                      A                      A
 Frequencies --    456.4011               497.7872               521.7558
 Red. masses --      7.3794                 6.0194                 5.5246
 Frc consts  --      0.9057                 0.8788                 0.8861
 IR Inten    --      2.3919                 2.5893                21.9703

                     37                     38                     39
                      A                      A                      A
 Frequencies --    539.5355               558.6945               566.6195
 Red. masses --     13.9491                14.8444                 5.9969
 Frc consts  --      2.3924                 2.7300                 1.1344
 IR Inten    --     11.5710                 8.8211                 1.3187

                     40                     41                     42
                      A                      A                      A
 Frequencies --    587.3413               588.1518               611.5943
 Red. masses --      6.6840                 2.4905                16.5190
 Frc consts  --      1.3585                 0.5076                 3.6405
 IR Inten    --    115.4269                14.1419                 0.1262

                     43                     44                     45
                      A                      A                      A
 Frequencies --    618.9083               649.0829               659.8912
 Red. masses --      5.8881                 7.0448                 5.6136
 Frc consts  --      1.3289                 1.7487                 1.4403
 IR Inten    --      3.3327                77.2337                 5.3943

                     46                     47                     48
                      A                      A                      A
 Frequencies --    665.5561               687.8729               747.5315
 Red. masses --      9.3156                 2.7509                10.4983
 Frc consts  --      2.4312                 0.7669                 3.4564
 IR Inten    --     40.8715                11.2418               176.1270

                     49                     50                     51
                      A                      A                      A
 Frequencies --    754.5798               767.0006               795.2451
 Red. masses --      1.2502                 2.4114                 6.5815
 Frc consts  --      0.4194                 0.8358                 2.4523
 IR Inten    --     15.1464                34.2608                40.8518

                     52                     53                     54
                      A                      A                      A
 Frequencies --    808.6250               825.0353               856.5247
 Red. masses --      1.3803                 1.4450                 1.4135
 Frc consts  --      0.5318                 0.5795                 0.6110
 IR Inten    --      8.5816                10.1211                 4.3223

                     55                     56                     57
                      A                      A                      A
 Frequencies --    870.9974               883.4147               890.8447
 Red. masses --     13.6161                18.5127                14.3988
 Frc consts  --      6.0861                 8.5123                 6.7326
 IR Inten    --    382.9226               444.4789               322.2334

                     58                     59                     60
                      A                      A                      A
 Frequencies --    891.4110               900.7257               915.9617
 Red. masses --      4.4060                 1.1563                 1.4924
 Frc consts  --      2.0628                 0.5527                 0.7377
 IR Inten    --     45.6774                 4.9132                38.3905

                     61                     62                     63
                      A                      A                      A
 Frequencies --    924.6094               931.0279               968.6972
 Red. masses --      1.8141                 1.2319                 1.1452
 Frc consts  --      0.9137                 0.6292                 0.6332
 IR Inten    --     50.2259                36.0191                98.1196

                     64                     65                     66
                      A                      A                      A
 Frequencies --    971.0989              1006.5248              1027.0495
 Red. masses --      5.3378                 5.7207                 1.6748
 Frc consts  --      2.9658                 3.4147                 1.0408
 IR Inten    --    102.3916                55.1330                 6.2440

                     67                     68                     69
                      A                      A                      A
 Frequencies --   1055.4031              1086.6530              1111.1251
 Red. masses --      4.0372                 2.6472                 1.7634
 Frc consts  --      2.6495                 1.8417                 1.2827
 IR Inten    --     28.4055                15.4589                 0.8715

                     70                     71                     72
                      A                      A                      A
 Frequencies --   1114.7214              1142.2017              1157.3990
 Red. masses --      2.3605                 1.5133                 2.2133
 Frc consts  --      1.7282                 1.1632                 1.7468
 IR Inten    --      6.1680                22.1641                51.8305

                     73                     74                     75
                      A                      A                      A
 Frequencies --   1164.4605              1182.5213              1193.2797
 Red. masses --      1.8375                 1.6145                 4.3383
 Frc consts  --      1.4680                 1.3301                 3.6396
 IR Inten    --     22.5391                 0.9091                 6.9707

                     76                     77                     78
                      A                      A                      A
 Frequencies --   1277.4270              1283.8279              1290.0787
 Red. masses --      1.1948                 1.5146                 1.1823
 Frc consts  --      1.1487                 1.4708                 1.1593
 IR Inten    --      2.3522                88.6806                 0.1809

                     79                     80                     81
                      A                      A                      A
 Frequencies --   1314.6324              1326.3771              1327.8291
 Red. masses --      1.5952                 1.9592                 1.1749
 Frc consts  --      1.6244                 2.0308                 1.2205
 IR Inten    --    304.9107                27.2367                11.0655

                     82                     83                     84
                      A                      A                      A
 Frequencies --   1341.2302              1364.5983              1382.4276
 Red. masses --      1.6484                 2.0923                 3.9122
 Frc consts  --      1.7471                 2.2955                 4.4051
 IR Inten    --     35.7257               291.0242               283.6709

                     85                     86                     87
                      A                      A                      A
 Frequencies --   1426.3992              1427.7214              1435.4572
 Red. masses --      1.3705                 1.3188                 1.5785
 Frc consts  --      1.6429                 1.5839                 1.9163
 IR Inten    --      7.2437                31.9017                 5.9779

                     88                     89                     90
                      A                      A                      A
 Frequencies --   1468.5488              1474.6306              1486.9470
 Red. masses --      3.2736                 2.4381                 1.4605
 Frc consts  --      4.1596                 3.1237                 1.9025
 IR Inten    --     35.7961               336.0954                84.9866

                     91                     92                     93
                      A                      A                      A
 Frequencies --   1507.0998              1511.7668              1519.0305
 Red. masses --      1.0668                 1.0406                 1.0401
 Frc consts  --      1.4276                 1.4012                 1.4140
 IR Inten    --     13.9408                 8.6760                 8.9081

                     94                     95                     96
                      A                      A                      A
 Frequencies --   1521.8363              1523.8189              1527.4502
 Red. masses --      1.1128                 1.1073                 3.3857
 Frc consts  --      1.5185                 1.5149                 4.6541
 IR Inten    --     73.5033                34.3967               472.7359

                     97                     98                     99
                      A                      A                      A
 Frequencies --   1538.4982              1612.3645              1639.1801
 Red. masses --      1.0985                 3.3296                 2.5484
 Frc consts  --      1.5320                 5.1000                 4.0343
 IR Inten    --      4.9087                89.8966                35.0379

                    100                    101                    102
                      A                      A                      A
 Frequencies --   1667.6636              1681.9999              1709.2396
 Red. masses --      4.7409                 3.1143                 3.2798
 Frc consts  --      7.7683                 5.1911                 5.6455
 IR Inten    --   1172.5133               121.9405               752.2127

                    103                    104                    105
                      A                      A                      A
 Frequencies --   1784.2208              3023.7087              3046.5226
 Red. masses --      2.9555                 1.0985                 1.0605
 Frc consts  --      5.5434                 5.9173                 5.7994
 IR Inten    --    457.9705              1309.9537               112.9146

                    106                    107                    108
                      A                      A                      A
 Frequencies --   3068.6742              3072.5551              3076.2375
 Red. masses --      1.0369                 1.0478                 1.1023
 Frc consts  --      5.7527                 5.8281                 6.1461
 IR Inten    --     48.0600                61.8737                35.0316

                    109                    110                    111
                      A                      A                      A
 Frequencies --   3078.7303              3082.2260              3112.3139
 Red. masses --      1.0543                 1.0605                 1.1006
 Frc consts  --      5.8880                 5.9361                 6.2813
 IR Inten    --     14.9141                30.1844                14.9911

                    112                    113                    114
                      A                      A                      A
 Frequencies --   3117.6291              3140.6513              3142.3100
 Red. masses --      1.1034                 1.1039                 1.0975
 Frc consts  --      6.3188                 6.4151                 6.3850
 IR Inten    --      2.8349                75.5669                49.0949

                    115                    116                    117
                      A                      A                      A
 Frequencies --   3144.5791              3163.7620              3194.2453
 Red. masses --      1.1013                 1.1023                 1.0922
 Frc consts  --      6.4162                 6.5007                 6.5659
 IR Inten    --     37.6760                40.4353              1660.6025

                    118                    119                    120
                      A                      A                      A
 Frequencies --   3232.4041              3280.0370              3298.7181
 Red. masses --      1.0941                 1.0932                 1.0921
 Frc consts  --      6.7351                 6.9296                 7.0020
 IR Inten    --     97.1741                 8.1848                41.6599

 - Thermochemistry -
 -------------------
 Temperature   298.150 Kelvin.  Pressure   1.00000 Atm.
 Atom     1 has atomic number  6 and mass  12.00000

 Molecular mass:   411.05686 amu.
 Principal axes and moments of inertia in atomic units:
                           1         2         3
     Eigenvalues --  7938.56907********************
           X            0.99982  -0.01910   0.00050
           Y            0.01910   0.99982   0.00204
           Z           -0.00054  -0.00203   1.00000
 This molecule is an asymmetric top.
 Rotational symmetry number  1.
 Warning -- assumption of classical behavior for rotation
           may cause significant error
 Rotational temperatures (Kelvin)      0.01091     0.00455     0.00330
 Rotational constants (GHZ):           0.22734     0.09476     0.06885
 Zero-point vibrational energy     813478.3 (Joules/Mol)
                                  194.42599 (Kcal/Mol)
 Warning -- explicit consideration of  43 degrees of freedom as
           vibrations may cause significant error
 Vibrational temperatures:     22.31    27.22    38.57    49.78    59.59
          (Kelvin)             64.97    68.12    79.49    84.33   110.53
                              112.89   141.93   147.50   168.26   206.26
                              239.82   266.66   278.06   287.57   325.31
                              342.98   348.33   352.61   393.61   400.00
                              442.58   456.92   486.87   497.82   563.38
                              565.66   639.26   653.35   656.66   716.20
                              750.69   776.27   803.84   815.24   845.05
                              846.22   879.95   890.47   933.88   949.44
                              957.59   989.69  1075.53  1085.67  1103.54
                             1144.18  1163.43  1187.04  1232.35  1253.17
                             1271.04  1281.73  1282.54  1295.94  1317.86
                             1330.31  1339.54  1393.74  1397.19  1448.16
                             1477.69  1518.49  1563.45  1598.66  1603.83
                             1643.37  1665.24  1675.40  1701.38  1716.86
                             1837.93  1847.14  1856.13  1891.46  1908.36
                             1910.45  1929.73  1963.35  1989.00  2052.27
                             2054.17  2065.30  2112.91  2121.66  2139.38
                             2168.38  2175.09  2185.54  2189.58  2192.43
                             2197.66  2213.55  2319.83  2358.41  2399.39
                             2420.02  2459.21  2567.09  4350.44  4383.26
                             4415.13  4420.72  4426.01  4429.60  4434.63
                             4477.92  4485.57  4518.69  4521.08  4524.34
                             4551.94  4595.80  4650.70  4719.24  4746.11

 Zero-point correction=                           0.309838 (Hartree/Particle)
 Thermal correction to Energy=                    0.336677
 Thermal correction to Enthalpy=                  0.337621
 Thermal correction to Gibbs Free Energy=         0.247389
 Sum of electronic and zero-point Energies=          -2197.635330
 Sum of electronic and thermal Energies=             -2197.608490
 Sum of electronic and thermal Enthalpies=           -2197.607546
 Sum of electronic and thermal Free Energies=        -2197.697778

                     E (Thermal)             CV                S
                      KCal/Mol        Cal/Mol-Kelvin    Cal/Mol-Kelvin
 Total                  211.268             95.492            189.910
 Electronic               0.000              0.000              0.000
 Translational            0.889              2.981             43.932
 Rotational               0.889              2.981             36.625
 Vibrational            209.491             89.531            109.353
 Vibration     1          0.593              1.986              7.139
 Vibration     2          0.593              1.986              6.745
 Vibration     3          0.593              1.984              6.053
 Vibration     4          0.594              1.983              5.547
 Vibration     5          0.594              1.981              5.190
 Vibration     6          0.595              1.979              5.019
 Vibration     7          0.595              1.979              4.925
 Vibration     8          0.596              1.975              4.620
 Vibration     9          0.596              1.974              4.503
 Vibration    10          0.599              1.965              3.971
 Vibration    11          0.600              1.964              3.929
 Vibration    12          0.604              1.950              3.481
 Vibration    13          0.605              1.947              3.406
 Vibration    14          0.608              1.935              3.150
 Vibration    15          0.616              1.910              2.759
 Vibration    16          0.624              1.883              2.473
 Vibration    17          0.631              1.860              2.274
 Vibration    18          0.635              1.849              2.196
 Vibration    19          0.638              1.840              2.134
 Vibration    20          0.650              1.801              1.910
 Vibration    21          0.656              1.782              1.815
 Vibration    22          0.658              1.776              1.787
 Vibration    23          0.660              1.771              1.766
 Vibration    24          0.676              1.722              1.574
 Vibration    25          0.679              1.714              1.546
 Vibration    26          0.697              1.659              1.375
 Vibration    27          0.704              1.640              1.323
 Vibration    28          0.719              1.599              1.220
 Vibration    29          0.724              1.583              1.184
 Vibration    30          0.759              1.488              0.994
 Vibration    31          0.760              1.485              0.988
 Vibration    32          0.804              1.373              0.813
 Vibration    33          0.813              1.352              0.783
 Vibration    34          0.815              1.347              0.777
 Vibration    35          0.853              1.255              0.664
 Vibration    36          0.877              1.202              0.606
 Vibration    37          0.895              1.163              0.566
 Vibration    38          0.914              1.121              0.526
 Vibration    39          0.923              1.103              0.511
 Vibration    40          0.944              1.059              0.472
 Vibration    41          0.945              1.057              0.470
 Vibration    42          0.971              1.007              0.430
 Vibration    43          0.979              0.992              0.418

 Normal termination of Gaussian 09 at Tue Feb 19 14:06:31 2019.
