 Gaussian 09, Revision E.01,

 ----------------------------------------------------------------------
 # M062X/Gen 6D SCF=Tight INT(grid=ultrafine) OPT IOP(2/17=4) SCRF=(SMD
 ,Solvent=n-Pentadecane) maxdisk=2684354560
 ----------------------------------------------------------------------

 ----------------------------------------
 3SF5Chloro.M062X_6-31pGd_opt_Pentadecane
 ----------------------------------------
 Symbolic Z-matrix:
 Charge =  0 Multiplicity = 1

 SCF Done:  E(RM062X) =  -1930.06288287     A.U. after   17 cycles
 SCF Done:  E(RM062X) =  -1930.09636452     A.U. after   13 cycles
 SCF Done:  E(RM062X) =  -1930.10511983     A.U. after   13 cycles
 SCF Done:  E(RM062X) =  -1930.10669730     A.U. after   13 cycles
 SCF Done:  E(RM062X) =  -1930.10761562     A.U. after   12 cycles
 SCF Done:  E(RM062X) =  -1930.10848410     A.U. after   14 cycles
 SCF Done:  E(RM062X) =  -1930.09453608     A.U. after   16 cycles
 SCF Done:  E(RM062X) =  -1930.10905817     A.U. after   15 cycles
 SCF Done:  E(RM062X) =  -1930.10980151     A.U. after   15 cycles
 SCF Done:  E(RM062X) =  -1930.11029637     A.U. after   12 cycles
 SCF Done:  E(RM062X) =  -1930.11175527     A.U. after   11 cycles
 SCF Done:  E(RM062X) =  -1930.11175428     A.U. after   11 cycles
 SCF Done:  E(RM062X) =  -1930.11175652     A.U. after   12 cycles
 SCF Done:  E(RM062X) =  -1930.11175653     A.U. after   10 cycles
 SCF Done:  E(RM062X) =  -1930.11175707     A.U. after   10 cycles
 SCF Done:  E(RM062X) =  -1930.11175880     A.U. after   11 cycles
 SCF Done:  E(RM062X) =  -1930.11175893     A.U. after    9 cycles
 SCF Done:  E(RM062X) =  -1930.11175900     A.U. after    9 cycles
 SCF Done:  E(RM062X) =  -1930.11175923     A.U. after    9 cycles
 Optimization completed.
    -- Stationary point found.
 Normal termination of Gaussian 09 at Mon Feb 25 14:53:39 2019.
 Gaussian 09:  ES64L-G09RevE.01 30-Nov-2015

 ----------------------------------------------------------------------
 # M062X/Gen 6D SCF=Tight INT(grid=ultrafine) SCRF=(SMD,Solvent=n-Penta
 decane) Freq=Noraman maxdisk=2684354560 geom=check guess=read IOP(2/17
 =4)
 ----------------------------------------------------------------------

 ----------------------------------------
 3SF5Chloro.M062X_6-31pGd_opt_Pentadecane
 ----------------------------------------
 Structure from the checkpoint file:  "3SF5Chloro.M062X_6-31pGd_opt_Pentadecane.chk"
 Charge =  0 Multiplicity = 1

                         Standard orientation:
 ---------------------------------------------------------------------
 Center     Atomic      Atomic             Coordinates (Angstroms)
 Number     Number       Type             X           Y           Z
 ---------------------------------------------------------------------
      1          6           0       -7.572352   -1.020541   -0.091788
      2          6           0       -6.468946    0.033464   -0.102757
      3          6           0       -5.098058   -0.592754    0.117242
      4          7           0       -4.061923    0.432117    0.098765
      5          6           0       -2.747400    0.075558    0.015985
      6          8           0       -2.376018   -1.075943   -0.154605
      7          7           0       -1.873637    1.154458    0.116202
      8          6           0       -0.480651    1.125605    0.058842
      9          6           0        0.268766   -0.059783    0.051131
     10          6           0        0.182573    2.360751    0.025804
     11          6           0        1.567110    2.403959   -0.014140
     12          6           0        2.341919    1.249421   -0.024462
     13          6           0        1.651250    0.046009    0.009569
     14          1           0       -8.554085   -0.564508   -0.249828
     15          1           0       -7.600379   -1.553805    0.864772
     16          1           0       -7.415170   -1.760901   -0.883702
     17          1           0       -6.662280    0.776766    0.683010
     18          1           0       -6.466959    0.569447   -1.059553
     19          1           0       -4.871528   -1.307758   -0.678446
     20          1           0       -5.077146   -1.144779    1.067209
     21          1           0       -4.299950    1.334433    0.493227
     22          1           0       -2.286781    2.079084    0.117905
     23          1           0       -0.229346   -1.018449    0.070867
     24          1           0       -0.385117    3.287001    0.030798
     25          1           0        3.423429    1.300849   -0.057738
     26         16           0        2.618701   -1.493022    0.000927
     27          9           0        1.744111   -2.136979    1.192158
     28          9           0        3.669344   -0.920256    1.086190
     29          9           0        1.651381   -2.185583   -1.084865
     30         17           0        2.360348    3.954327   -0.055646
     31          9           0        3.480943   -2.852331   -0.005176
     32          9           0        3.575552   -0.967206   -1.189180
 ---------------------------------------------------------------------

 SCF Done:  E(RM062X) =  -1930.11175923     A.U. after    1 cycles

 The electronic state is 1-A.
 Alpha  occ. eigenvalues -- -102.68771 -90.32801 -25.30565 -25.30561 -25.30546
 Alpha  occ. eigenvalues --  -25.30544 -25.30377 -19.62556 -14.82049 -14.79750
 Alpha  occ. eigenvalues --  -10.69994 -10.64212 -10.63751 -10.62211 -10.58992
 Alpha  occ. eigenvalues --  -10.58913 -10.58647 -10.58284 -10.55575 -10.54178
 Alpha  occ. eigenvalues --   -9.83432  -8.61430  -7.55840  -7.55169  -7.55154
 Alpha  occ. eigenvalues --   -6.53864  -6.53855  -6.53425  -1.49437  -1.39604
 Alpha  occ. eigenvalues --   -1.39540  -1.36535  -1.35114  -1.19283  -1.07955
 Alpha  occ. eigenvalues --   -1.04494  -1.01779  -0.97253  -0.92820  -0.89346
 Alpha  occ. eigenvalues --   -0.86929  -0.85502  -0.79276  -0.76109  -0.74028
 Alpha  occ. eigenvalues --   -0.73100  -0.72820  -0.69477  -0.68904  -0.67936
 Alpha  occ. eigenvalues --   -0.64658  -0.63609  -0.61709  -0.61415  -0.61124
 Alpha  occ. eigenvalues --   -0.59738  -0.57803  -0.56707  -0.55793  -0.55080
 Alpha  occ. eigenvalues --   -0.54877  -0.54827  -0.54530  -0.54321  -0.53492
 Alpha  occ. eigenvalues --   -0.52640  -0.51940  -0.51141  -0.50920  -0.50849
 Alpha  occ. eigenvalues --   -0.49570  -0.49530  -0.47881  -0.46962  -0.46475
 Alpha  occ. eigenvalues --   -0.44424  -0.43328  -0.43066  -0.41204  -0.40516
 Alpha  occ. eigenvalues --   -0.39506  -0.39296  -0.36066  -0.33332  -0.32832
 Alpha  occ. eigenvalues --   -0.29262
 Alpha virt. eigenvalues --   -0.02044  -0.01290  -0.00448  -0.00120   0.01784
 Alpha virt. eigenvalues --    0.02781   0.03272   0.03546   0.03768   0.04477
 Alpha virt. eigenvalues --    0.05032   0.05232   0.05370   0.05747   0.06325

 Mulliken charges:
               1
     1  C   -0.736105
     2  C   -0.338699
     3  C   -0.164149
     4  N   -0.604553
     5  C    0.711372
     6  O   -0.593756
     7  N   -0.671143
     8  C    0.198622
     9  C    0.387446
    10  C   -1.250358
    11  C    0.619669
    12  C   -0.791452
    13  C   -0.090886
    14  H    0.218853
    15  H    0.218589
    16  H    0.220326
    17  H    0.211888
    18  H    0.229792
    19  H    0.246683
    20  H    0.224410
    21  H    0.416402
    22  H    0.443164
    23  H    0.309004
    24  H    0.242347
    25  H    0.280234
    26  S    2.323540
    27  F   -0.490873
    28  F   -0.496715
    29  F   -0.490420
    30  Cl   0.209680
    31  F   -0.497036
    32  F   -0.495877
 Sum of Mulliken charges =  -0.00000

 Dipole moment (field-independent basis, Debye):
    X=             -7.3375    Y=              5.6838    Z=              0.9275  Tot=              9.3276
 Quadrupole moment (field-independent basis, Debye-Ang):
   XX=           -109.4751   YY=           -132.2632   ZZ=           -133.4909
   XY=             -6.2179   XZ=             -3.5834   YZ=              0.9118

  Exact polarizability: 252.227  14.326 211.743  -2.622  -0.080 121.792
 Approx polarizability: 235.840   8.688 228.753  -3.121   0.877 143.965

                      1                      2                      3
                      A                      A                      A
 Frequencies --     19.2771                34.3830                40.8877
 Red. masses --      5.5831                 4.4787                 4.2292
 Frc consts  --      0.0012                 0.0031                 0.0042
 IR Inten    --      0.2144                 1.4894                 4.5411

                      4                      5                      6
                      A                      A                      A
 Frequencies --     45.7473                66.2891                78.4488
 Red. masses --      5.4130                 3.2727                 3.8910
 Frc consts  --      0.0067                 0.0085                 0.0141
 IR Inten    --      0.8269                 7.6684                 1.6642

                      7                      8                      9
                      A                      A                      A
 Frequencies --    105.7061               107.2006               145.5665
 Red. masses --      5.9853                 7.2203                 9.3556
 Frc consts  --      0.0394                 0.0489                 0.1168
 IR Inten    --      0.5593                 0.5438                 6.5001

                     10                     11                     12
                      A                      A                      A
 Frequencies --    183.6901               193.5045               196.1129
 Red. masses --      4.1720                 7.1889                 4.9285
 Frc consts  --      0.0829                 0.1586                 0.1117
 IR Inten    --      1.1740                 0.2023                 1.6258

                     13                     14                     15
                      A                      A                      A
 Frequencies --    236.2951               244.1503               249.5182
 Red. masses --      5.4184                 1.3166                 2.6272
 Frc consts  --      0.1783                 0.0462                 0.0964
 IR Inten    --      8.0857                 0.1873                 0.4216

                     16                     17                     18
                      A                      A                      A
 Frequencies --    271.5944               277.2926               316.6570
 Red. masses --      8.7579                 7.3772                 6.7480
 Frc consts  --      0.3806                 0.3342                 0.3987
 IR Inten    --      1.0570                 0.2697                 4.6553

                     19                     20                     21
                      A                      A                      A
 Frequencies --    333.5855               339.5113               355.6099
 Red. masses --      1.9224                18.7787                 1.9459
 Frc consts  --      0.1260                 1.2753                 0.1450
 IR Inten    --     90.8073                 0.0074                18.6710

                     22                     23                     24
                      A                      A                      A
 Frequencies --    392.6972               393.6361               446.1937
 Red. masses --     11.7144                15.2358                 6.6711
 Frc consts  --      1.0644                 1.3909                 0.7825
 IR Inten    --      1.8718                 4.6719                 0.4682

                     25                     26                     27
                      A                      A                      A
 Frequencies --    456.6718               459.5344               497.6660
 Red. masses --      5.9162                 9.1524                 5.8655
 Frc consts  --      0.7269                 1.1387                 0.8559
 IR Inten    --      6.3048                 3.0587                 4.9236

                     28                     29                     30
                      A                      A                      A
 Frequencies --    534.2166               542.2805               559.9900
 Red. masses --      1.7487                 3.3783                12.9597
 Frc consts  --      0.2940                 0.5853                 2.3944
 IR Inten    --     70.7158               100.5723                12.2429

                     31                     32                     33
                      A                      A                      A
 Frequencies --    565.2810               592.1878               612.5538
 Red. masses --      4.9621                17.7175                 5.3670
 Frc consts  --      0.9342                 3.6608                 1.1865
 IR Inten    --      6.4261               129.0481                 0.2893

                     34                     35                     36
                      A                      A                      A
 Frequencies --    618.8781               651.4044               672.3593
 Red. masses --     17.4995                 6.0089                16.6472
 Frc consts  --      3.9490                 1.5023                 4.4340
 IR Inten    --      0.2203                19.9291                31.9804

                     37                     38                     39
                      A                      A                      A
 Frequencies --    682.1232               754.6631               759.0452
 Red. masses --      2.7001                 1.7955                 9.4384
 Frc consts  --      0.7402                 0.6025                 3.2039
 IR Inten    --     21.6973                15.5960               128.7782

                     40                     41                     42
                      A                      A                      A
 Frequencies --    766.9469               807.8867               878.4398
 Red. masses --      2.0798                 6.9011                 1.5606
 Frc consts  --      0.7208                 2.6538                 0.7095
 IR Inten    --      8.0094                97.8155                12.5754

                     43                     44                     45
                      A                      A                      A
 Frequencies --    882.4328               893.4039               897.2534
 Red. masses --     10.4370                14.0492                 1.4480
 Frc consts  --      4.7884                 6.6069                 0.6868
 IR Inten    --    343.7046               487.5676                 5.4058

                     46                     47                     48
                      A                      A                      A
 Frequencies --    900.0505               900.3771               924.8739
 Red. masses --      1.6951                 3.3264                 1.3811
 Frc consts  --      0.8091                 1.5888                 0.6961
 IR Inten    --    101.1485               207.5268                20.8053

                     49                     50                     51
                      A                      A                      A
 Frequencies --    929.2380               972.8345              1013.0231
 Red. masses --      1.8127                 5.4850                 5.9065
 Frc consts  --      0.9222                 3.0585                 3.5712
 IR Inten    --     47.0209                69.7356                14.9385

                     52                     53                     54
                      A                      A                      A
 Frequencies --   1051.3968              1084.6043              1152.4581
 Red. masses --      4.2326                 2.5473                 2.0109
 Frc consts  --      2.7567                 1.7656                 1.5736
 IR Inten    --     20.8351                21.8546                13.4537

                     55                     56                     57
                      A                      A                      A
 Frequencies --   1157.3249              1167.3913              1170.2159
 Red. masses --      1.9013                 2.6664                 1.6003
 Frc consts  --      1.5004                 2.1409                 1.2911
 IR Inten    --     31.2269                23.8771                37.7257

                     58                     59                     60
                      A                      A                      A
 Frequencies --   1182.1763              1244.2823              1280.3932
 Red. masses --      1.8586                 1.6578                 1.3028
 Frc consts  --      1.5303                 1.5122                 1.2584
 IR Inten    --      3.0569               324.5540                63.7820

                     61                     62                     63
                      A                      A                      A
 Frequencies --   1293.7742              1317.4167              1326.1014
 Red. masses --      1.7154                 1.9369                 1.1302
 Frc consts  --      1.6917                 1.9807                 1.1710
 IR Inten    --     87.4736                21.1010                24.0265

                     64                     65                     66
                      A                      A                      A
 Frequencies --   1345.9262              1366.6643              1424.1791
 Red. masses --      1.3565                 3.9935                 1.5093
 Frc consts  --      1.4478                 4.3946                 1.8036
 IR Inten    --      8.5793               109.6454                 0.2767

                     67                     68                     69
                      A                      A                      A
 Frequencies --   1436.2823              1462.8266              1508.9236
 Red. masses --      1.3287                 2.6178                 1.0630
 Frc consts  --      1.6149                 3.3004                 1.4260
 IR Inten    --      1.8229                68.6999                16.0109

                     70                     71                     72
                      A                      A                      A
 Frequencies --   1518.5792              1520.5179              1522.6731
 Red. masses --      3.0182                 1.0553                 1.1068
 Frc consts  --      4.1008                 1.4375                 1.5120
 IR Inten    --    426.8023                13.9030                 5.1567

                     73                     74                     75
                      A                      A                      A
 Frequencies --   1535.3905              1553.7574              1590.7517
 Red. masses --      1.0973                 1.9751                 2.2572
 Frc consts  --      1.5241                 2.8094                 3.3653
 IR Inten    --      9.1634               415.0588               749.2480

                     76                     77                     78
                      A                      A                      A
 Frequencies --   1665.7775              1685.2435              1807.5993
 Red. masses --      4.8470                 7.1537                 8.1064
 Frc consts  --      7.9242                11.9703                15.6057
 IR Inten    --    125.1931               182.8965               379.2555

                     79                     80                     81
                      A                      A                      A
 Frequencies --   3059.1860              3061.7169              3079.4823
 Red. masses --      1.0635                 1.0706                 1.0366
 Frc consts  --      5.8642                 5.9131                 5.7917
 IR Inten    --     15.5333                53.5899                33.8358

                     82                     83                     84
                      A                      A                      A
 Frequencies --   3105.5281              3144.3350              3151.1357
 Red. masses --      1.0975                 1.0977                 1.1019
 Frc consts  --      6.2365                 6.3943                 6.4468
 IR Inten    --     19.5650                 1.0657                60.3219

                     85                     86                     87
                      A                      A                      A
 Frequencies --   3159.1703              3239.5992              3275.1757
 Red. masses --      1.1020                 1.0921                 1.0937
 Frc consts  --      6.4799                 6.7527                 6.9125
 IR Inten    --     32.5513                 1.4330                13.4028

                     88                     89                     90
                      A                      A                      A
 Frequencies --   3307.4632              3624.2765              3637.3264
 Red. masses --      1.0924                 1.0781                 1.0774
 Frc consts  --      7.0410                 8.3435                 8.3984
 IR Inten    --     40.6554                44.0237                60.0532

 - Thermochemistry -
 -------------------
 Temperature   298.150 Kelvin.  Pressure   1.00000 Atm.
 Atom     1 has atomic number  6 and mass  12.00000

 Molecular mass:   338.02790 amu.
 Principal axes and moments of inertia in atomic units:
                           1         2         3
     Eigenvalues --  4802.11553********************
           X            0.99987   0.01600  -0.00006
           Y           -0.01600   0.99987   0.00091
           Z            0.00008  -0.00090   1.00000
 This molecule is an asymmetric top.
 Rotational symmetry number  1.
 Warning -- assumption of classical behavior for rotation
           may cause significant error
 Rotational temperatures (Kelvin)      0.01804     0.00638     0.00491
 Rotational constants (GHZ):           0.37582     0.13298     0.10240
 Zero-point vibrational energy     604211.0 (Joules/Mol)
                                  144.40990 (Kcal/Mol)
 Warning -- explicit consideration of  34 degrees of freedom as
           vibrations may cause significant error
 Vibrational temperatures:     27.74    49.47    58.83    65.82    95.38
          (Kelvin)            112.87   152.09   154.24   209.44   264.29
                              278.41   282.16   339.98   351.28   359.00
                              390.76   398.96   455.60   479.95   488.48
                              511.64   565.00   566.35   641.97   657.05
                              661.17   716.03   768.62   780.22   805.70
                              813.31   852.03   881.33   890.43   937.22
                              967.37   981.42  1085.79  1092.10  1103.46
                             1162.37  1263.88  1269.62  1285.41  1290.95
                             1294.97  1295.44  1330.69  1336.96  1399.69
                             1457.51  1512.72  1560.50  1658.13  1665.13
                             1679.61  1683.68  1700.89  1790.24  1842.20
                             1861.45  1895.47  1907.96  1936.49  1966.32
                             2049.07  2066.49  2104.68  2171.00  2184.89
                             2187.68  2190.78  2209.08  2235.51  2288.73
                             2396.68  2424.69  2600.73  4401.48  4405.12
                             4430.68  4468.16  4523.99  4533.78  4545.34
                             4661.05  4712.24  4758.70  5214.52  5233.29

 Zero-point correction=                           0.230132 (Hartree/Particle)
 Thermal correction to Energy=                    0.250113
 Thermal correction to Enthalpy=                  0.251057
 Thermal correction to Gibbs Free Energy=         0.179168
 Sum of electronic and zero-point Energies=          -1929.881627
 Sum of electronic and thermal Energies=             -1929.861646
 Sum of electronic and thermal Enthalpies=           -1929.860702
 Sum of electronic and thermal Free Energies=        -1929.932591

                     E (Thermal)             CV                S
                      KCal/Mol        Cal/Mol-Kelvin    Cal/Mol-Kelvin
 Total                  156.948             74.075            151.304
 Electronic               0.000              0.000              0.000
 Translational            0.889              2.981             43.349
 Rotational               0.889              2.981             35.395
 Vibrational            155.171             68.113             72.561
 Vibration     1          0.593              1.986              6.707
 Vibration     2          0.594              1.983              5.559
 Vibration     3          0.594              1.981              5.216
 Vibration     4          0.595              1.979              4.993
 Vibration     5          0.598              1.970              4.261
 Vibration     6          0.600              1.964              3.929
 Vibration     7          0.605              1.945              3.346
 Vibration     8          0.606              1.943              3.319
 Vibration     9          0.617              1.907              2.729
 Vibration    10          0.631              1.862              2.291
 Vibration    11          0.635              1.849              2.194
 Vibration    12          0.636              1.845              2.169
 Vibration    13          0.655              1.785              1.831
 Vibration    14          0.659              1.772              1.772
 Vibration    15          0.662              1.764              1.734
 Vibration    16          0.675              1.726              1.586
 Vibration    17          0.678              1.715              1.550
 Vibration    18          0.704              1.642              1.327
 Vibration    19          0.715              1.608              1.243
 Vibration    20          0.719              1.597              1.214
 Vibration    21          0.731              1.564              1.141
 Vibration    22          0.760              1.486              0.990
 Vibration    23          0.761              1.484              0.986
 Vibration    24          0.805              1.369              0.807
 Vibration    25          0.815              1.346              0.776
 Vibration    26          0.817              1.340              0.767
 Vibration    27          0.853              1.255              0.664
 Vibration    28          0.889              1.174              0.578
 Vibration    29          0.897              1.157              0.560
 Vibration    30          0.916              1.118              0.524
 Vibration    31          0.921              1.106              0.513
 Vibration    32          0.950              1.048              0.463
 Vibration    33          0.972              1.005              0.429
 Vibration    34          0.979              0.992              0.418

 Normal termination of Gaussian 09 at Mon Feb 25 15:52:42 2019.
