 Gaussian 09, Revision E.01,

 ----------------------------------------------------------------------
 # M062X/Gen 6D SCF=Tight INT(grid=ultrafine) OPT IOP(2/17=4) maxdisk=2
 684354560
 ----------------------------------------------------------------------

 --------------------------------
 3SF55Chloro_a1.M062X_6-31pGd_opt
 --------------------------------
 Symbolic Z-matrix:
 Charge = -1 Multiplicity = 1

 SCF Done:  E(RM062X) =  -1929.50707483     A.U. after   19 cycles
 SCF Done:  E(RM062X) =  -1929.54610786     A.U. after   14 cycles
 SCF Done:  E(RM062X) =  -1929.55851399     A.U. after   16 cycles
 SCF Done:  E(RM062X) =  -1929.56050231     A.U. after   14 cycles
 SCF Done:  E(RM062X) =  -1929.56151394     A.U. after   16 cycles
 SCF Done:  E(RM062X) =  -1929.56264203     A.U. after   16 cycles
 SCF Done:  E(RM062X) =  -1929.56355651     A.U. after   15 cycles
 SCF Done:  E(RM062X) =  -1929.56329653     A.U. after   13 cycles
 SCF Done:  E(RM062X) =  -1929.56368116     A.U. after   11 cycles
 SCF Done:  E(RM062X) =  -1929.56418884     A.U. after   14 cycles
 SCF Done:  E(RM062X) =  -1929.56600645     A.U. after   13 cycles
 SCF Done:  E(RM062X) =  -1929.56605428     A.U. after   13 cycles
 SCF Done:  E(RM062X) =  -1929.56606638     A.U. after   12 cycles
 SCF Done:  E(RM062X) =  -1929.56607412     A.U. after   12 cycles
 SCF Done:  E(RM062X) =  -1929.56607567     A.U. after   11 cycles
 SCF Done:  E(RM062X) =  -1929.56607619     A.U. after   10 cycles
 SCF Done:  E(RM062X) =  -1929.56607632     A.U. after   10 cycles
 SCF Done:  E(RM062X) =  -1929.56607634     A.U. after    9 cycles
 Optimization completed.
    -- Stationary point found.
 Normal termination of Gaussian 09 at Tue Oct 30 14:09:06 2018.
 Gaussian 09:  ES64L-G09RevE.01 30-Nov-2015

 ----------------------------------------------------------------------
 # M062X/Gen 6D SCF=Tight INT(grid=ultrafine) OPT IOP(2/17=4) Freq=Nora
 man maxdisk=2684354560 geom=check guess=read IOP(2/17=4)
 ----------------------------------------------------------------------

 --------------------------------
 3SF55Chloro_a1.M062X_6-31pGd_opt
 --------------------------------
 Structure from the checkpoint file:  "3SF55Chloro_a1.M062X_6-31pGd_opt.chk"
 Charge = -1 Multiplicity = 1

 SCF Done:  E(RM062X) =  -1929.56607634     A.U. after    1 cycles
 Optimization completed.
    -- Stationary point found.
 Normal termination of Gaussian 09 at Tue Oct 30 14:10:18 2018.

 ----------------------------------------------------------------------
 #N Geom=AllCheck Guess=TCheck SCRF=Check Test GenChk RM062X/ChkBas Fre
 q
 ----------------------------------------------------------------------

 Structure from the checkpoint file:  "3SF55Chloro_a1.M062X_6-31pGd_opt.chk"
 --------------------------------
 3SF55Chloro_a1.M062X_6-31pGd_opt
 --------------------------------
 Charge = -1 Multiplicity = 1

                         Standard orientation:
 ---------------------------------------------------------------------
 Center     Atomic      Atomic             Coordinates (Angstroms)
 Number     Number       Type             X           Y           Z
 ---------------------------------------------------------------------
      1          6           0       -7.467220   -1.097285   -0.001461
      2          6           0       -6.361679   -0.141329   -0.445936
      3          6           0       -5.089153   -0.312367    0.381988
      4          7           0       -4.050722    0.600040   -0.027804
      5          6           0       -2.697998    0.224222    0.042449
      6          8           0       -2.411981   -0.984445    0.091889
      7          7           0       -1.891771    1.311857    0.024375
      8          6           0       -0.544729    1.181601    0.015785
      9          6           0        0.219684   -0.028318    0.007812
     10          6           0        0.203509    2.394137    0.010519
     11          6           0        1.582508    2.390798   -0.000773
     12          6           0        2.342927    1.224182   -0.008987
     13          6           0        1.600144    0.045624   -0.004546
     14          1           0       -8.375608   -0.974385   -0.601036
     15          1           0       -7.733524   -0.929247    1.048979
     16          1           0       -7.140217   -2.139296   -0.095461
     17          1           0       -6.714724    0.896478   -0.365367
     18          1           0       -6.111765   -0.305329   -1.500667
     19          1           0       -4.683714   -1.320053    0.251632
     20          1           0       -5.337073   -0.200888    1.453930
     21          1           0       -4.187514    1.584026    0.165550
     22          1           0       -0.304330   -0.973891    0.013680
     23          1           0       -0.348925    3.327578    0.014486
     24          1           0        3.424142    1.242759   -0.017804
     25         16           0        2.532670   -1.516066   -0.013929
     26          9           0        1.626199   -2.188221    1.140170
     27          9           0        3.582253   -1.002740    1.116288
     28          9           0        1.600223   -2.190217   -1.146015
     29         17           0        2.437132    3.932546   -0.006613
     30          9           0        3.382364   -2.903169   -0.022461
     31          9           0        3.556142   -1.004464   -1.168519
 ---------------------------------------------------------------------

 SCF Done:  E(RM062X) =  -1929.56607634     A.U. after    1 cycles

 The electronic state is 1-A.
 Alpha  occ. eigenvalues -- -102.56829 -90.20996 -25.19197 -25.19193 -25.19182
 Alpha  occ. eigenvalues --  -25.19179 -25.19113 -19.46160 -14.63866 -14.58403
 Alpha  occ. eigenvalues --  -10.52033 -10.50762 -10.49086 -10.47367 -10.46459
 Alpha  occ. eigenvalues --  -10.45839 -10.45376 -10.45271 -10.43740 -10.43495
 Alpha  occ. eigenvalues --   -9.71495  -8.49714  -7.43880  -7.43250  -7.43244
 Alpha  occ. eigenvalues --   -6.42127  -6.42115  -6.41654  -1.37670  -1.28039
 Alpha  occ. eigenvalues --   -1.27984  -1.24936  -1.23674  -1.01357  -0.89582
 Alpha  occ. eigenvalues --   -0.89071  -0.85993  -0.84395  -0.79511  -0.78109
 Alpha  occ. eigenvalues --   -0.72584  -0.71251  -0.66811  -0.62735  -0.61753
 Alpha  occ. eigenvalues --   -0.61596  -0.59362  -0.56968  -0.54314  -0.51988
 Alpha  occ. eigenvalues --   -0.51045  -0.50286  -0.50021  -0.47396  -0.46451
 Alpha  occ. eigenvalues --   -0.46262  -0.44116  -0.43588  -0.43484  -0.43318
 Alpha  occ. eigenvalues --   -0.43213  -0.43064  -0.41022  -0.40556  -0.39999
 Alpha  occ. eigenvalues --   -0.39644  -0.39575  -0.38997  -0.37590  -0.36475
 Alpha  occ. eigenvalues --   -0.36309  -0.35008  -0.34270  -0.34014  -0.32787
 Alpha  occ. eigenvalues --   -0.31177  -0.30446  -0.29525  -0.29161  -0.27620
 Alpha  occ. eigenvalues --   -0.23640  -0.22103  -0.19498  -0.18198  -0.16747
 Alpha  occ. eigenvalues --   -0.11347
 Alpha virt. eigenvalues --    0.09136   0.09869   0.10677   0.11282   0.11661
 Alpha virt. eigenvalues --    0.12559   0.13252   0.13485   0.13756   0.13961
 Alpha virt. eigenvalues --    0.14287   0.14400   0.14836   0.15472   0.15999

 Mulliken charges:
               1
     1  C   -0.736056
     2  C   -0.240508
     3  C   -0.239018
     4  N   -0.522974
     5  C    0.508565
     6  O   -0.651658
     7  N   -0.499134
     8  C    0.003465
     9  C    0.285582
    10  C   -1.057769
    11  C    0.785792
    12  C   -0.991657
    13  C   -0.034854
    14  H    0.191596
    15  H    0.199362
    16  H    0.208247
    17  H    0.190099
    18  H    0.218406
    19  H    0.254825
    20  H    0.173351
    21  H    0.394346
    22  H    0.298190
    23  H    0.214294
    24  H    0.231286
    25  S    2.238763
    26  F   -0.488314
    27  F   -0.506417
    28  F   -0.489293
    29  Cl   0.088262
    30  F   -0.520763
    31  F   -0.506017
 Sum of Mulliken charges =  -1.00000

 Dipole moment (field-independent basis, Debye):
    X=              0.0415    Y=              0.0993    Z=              0.3718  Tot=              0.3871
 Quadrupole moment (field-independent basis, Debye-Ang):
   XX=           -168.1034   YY=           -156.2862   ZZ=           -137.8760
   XY=             -1.3539   XZ=             -1.8351   YZ=              1.1645

  Exact polarizability: 275.687  21.894 196.544  -1.835  -1.684 118.705
 Approx polarizability: 280.990  15.693 237.002  -1.755  -1.564 154.407

                      1                      2                      3
                      A                      A                      A
 Frequencies --     14.6185                25.7654                39.3893
 Red. masses --      4.5403                 6.3177                 5.3415
 Frc consts  --      0.0006                 0.0025                 0.0049
 IR Inten    --      0.7503                 0.1349                 4.0925

                      4                      5                      6
                      A                      A                      A
 Frequencies --     41.3317                65.6546                82.3342
 Red. masses --      4.1948                 3.0747                 5.8667
 Frc consts  --      0.0042                 0.0078                 0.0234
 IR Inten    --      0.8091                 1.6177                 1.4878

                      7                      8                      9
                      A                      A                      A
 Frequencies --     98.1514               117.2264               138.6370
 Red. masses --      4.5383                 6.9986                 8.9656
 Frc consts  --      0.0258                 0.0567                 0.1015
 IR Inten    --      1.2894                 1.5047                 2.5368

                     10                     11                     12
                      A                      A                      A
 Frequencies --    191.4786               200.3835               203.5898
 Red. masses --      7.9378                 5.6916                 5.0691
 Frc consts  --      0.1715                 0.1346                 0.1238
 IR Inten    --      3.0861                 0.1641                 1.0708

                     13                     14                     15
                      A                      A                      A
 Frequencies --    236.8448               245.0713               257.4711
 Red. masses --      1.1173                 4.4506                 6.1851
 Frc consts  --      0.0369                 0.1575                 0.2416
 IR Inten    --      0.0252                 2.6132                 0.2326

                     16                     17                     18
                      A                      A                      A
 Frequencies --    275.2047               279.2159               316.1542
 Red. masses --      7.5005                 6.0248                 6.7588
 Frc consts  --      0.3347                 0.2767                 0.3980
 IR Inten    --      0.1487                 0.2347                 7.8652

                     19                     20                     21
                      A                      A                      A
 Frequencies --    338.9208               354.1395               389.7094
 Red. masses --     18.8547                 5.2139                15.5121
 Frc consts  --      1.2760                 0.3853                 1.3880
 IR Inten    --      0.0012                29.1409                 3.3155

                     22                     23                     24
                      A                      A                      A
 Frequencies --    391.6470               445.0891               451.9045
 Red. masses --     11.8500                 8.3379                15.0673
 Frc consts  --      1.0709                 0.9732                 1.8129
 IR Inten    --      0.8054                 5.2052                 0.1358

                     25                     26                     27
                      A                      A                      A
 Frequencies --    457.0827               500.0855               538.6544
 Red. masses --      4.2481                 5.3271                12.0562
 Frc consts  --      0.5229                 0.7849                 2.0610
 IR Inten    --     11.6025                 0.6820                 7.2527

                     28                     29                     30
                      A                      A                      A
 Frequencies --    558.5625               563.7550               585.8446
 Red. masses --     14.4977                 6.4169                 4.5720
 Frc consts  --      2.6650                 1.2016                 0.9245
 IR Inten    --      5.9832                 0.4605                34.6191

                     31                     32                     33
                      A                      A                      A
 Frequencies --    590.4629               607.9014               624.2420
 Red. masses --      2.0730                15.4042                 4.8337
 Frc consts  --      0.4258                 3.3539                 1.1098
 IR Inten    --    140.2642                 0.8970                 1.7974

                     34                     35                     36
                      A                      A                      A
 Frequencies --    651.3821               662.6508               683.7538
 Red. masses --      7.1212                 5.6659                 2.6447
 Frc consts  --      1.7802                 1.4659                 0.7285
 IR Inten    --     66.6752                32.8538                12.0580

                     37                     38                     39
                      A                      A                      A
 Frequencies --    739.5120               752.6378               788.3044
 Red. masses --      4.4776                 1.3297                 3.6696
 Frc consts  --      1.4427                 0.4438                 1.3436
 IR Inten    --    112.0099                32.8479                83.4039

                     40                     41                     42
                      A                      A                      A
 Frequencies --    797.4979               801.4324               863.9753
 Red. masses --      1.7748                 4.1606                10.0043
 Frc consts  --      0.6651                 1.5745                 4.3999
 IR Inten    --     19.7523                 5.9488               389.1389

                     43                     44                     45
                      A                      A                      A
 Frequencies --    886.9097               890.3925               892.8999
 Red. masses --      1.9414                 1.3577                 5.4864
 Frc consts  --      0.8998                 0.6342                 2.5772
 IR Inten    --      9.9780                 1.7723               384.8839

                     46                     47                     48
                      A                      A                      A
 Frequencies --    895.7917               915.4933               917.9335
 Red. masses --     20.9757                 1.8182                 1.3902
 Frc consts  --      9.9170                 0.8978                 0.6902
 IR Inten    --    211.7156                36.0523                45.6009

                     49                     50                     51
                      A                      A                      A
 Frequencies --    956.1910               990.0456              1021.8869
 Red. masses --      5.2325                 5.3936                 4.3082
 Frc consts  --      2.8187                 3.1148                 2.6506
 IR Inten    --     40.9764               173.1810                43.9701

                     52                     53                     54
                      A                      A                      A
 Frequencies --   1071.0627              1128.8578              1133.1468
 Red. masses --      2.5795                 1.5506                 1.5840
 Frc consts  --      1.7435                 1.1642                 1.1984
 IR Inten    --      7.5973                19.1313                73.0258

                     55                     56                     57
                      A                      A                      A
 Frequencies --   1144.0163              1163.4303              1197.0823
 Red. masses --      2.1016                 1.8112                 3.1521
 Frc consts  --      1.6206                 1.4444                 2.6614
 IR Inten    --     16.3660                 6.6781                51.2492

                     58                     59                     60
                      A                      A                      A
 Frequencies --   1250.0236              1271.2316              1278.4770
 Red. masses --      2.0958                 1.2712                 1.4595
 Frc consts  --      1.9294                 1.2103                 1.4056
 IR Inten    --    332.0287                 8.2038               317.7888

                     61                     62                     63
                      A                      A                      A
 Frequencies --   1320.4789              1327.5247              1338.9139
 Red. masses --      1.2277                 3.8193                 1.3162
 Frc consts  --      1.2613                 3.9657                 1.3902
 IR Inten    --     47.0464                56.5414                17.2857

                     64                     65                     66
                      A                      A                      A
 Frequencies --   1392.7501              1424.4953              1429.0112
 Red. masses --      2.6478                 1.3164                 1.8710
 Frc consts  --      3.0261                 1.5739                 2.2511
 IR Inten    --    365.0064                17.9112                36.6332

                     67                     68                     69
                      A                      A                      A
 Frequencies --   1482.7696              1510.1555              1512.9022
 Red. masses --      4.5773                 1.1970                 1.6003
 Frc consts  --      5.9293                 1.6083                 2.1581
 IR Inten    --      4.1047               297.7193               822.1850

                     70                     71                     72
                      A                      A                      A
 Frequencies --   1521.8257              1523.1339              1531.4381
 Red. masses --      1.0881                 1.0906                 1.4591
 Frc consts  --      1.4848                 1.4907                 2.0162
 IR Inten    --      0.2484               113.0829               272.7678

                     73                     74                     75
                      A                      A                      A
 Frequencies --   1535.0362              1594.2131              1644.7113
 Red. masses --      2.1752                 6.2295                 7.8609
 Frc consts  --      3.0199                 9.3281                12.5286
 IR Inten    --    442.6511               111.0562               582.0740

                     76                     77                     78
                      A                      A                      A
 Frequencies --   1709.8961              2972.8440              3054.7181
 Red. masses --      8.2116                 1.0735                 1.0664
 Frc consts  --     14.1455                 5.5896                 5.8629
 IR Inten    --    233.2847               131.4306                38.2592

                     79                     80                     81
                      A                      A                      A
 Frequencies --   3064.4509              3104.5733              3132.5207
 Red. masses --      1.0357                 1.0956                 1.0989
 Frc consts  --      5.7304                 6.2217                 6.3533
 IR Inten    --     50.2381                11.3894                42.1056

                     82                     83                     84
                      A                      A                      A
 Frequencies --   3137.1081              3142.9341              3249.3074
 Red. masses --      1.1013                 1.0920                 1.0913
 Frc consts  --      6.3859                 6.3552                 6.7888
 IR Inten    --     54.3226                29.4829                 1.9849

                     85                     86                     87
                      A                      A                      A
 Frequencies --   3285.5416              3294.8030              3634.5164
 Red. masses --      1.0927                 1.0910                 1.0761
 Frc consts  --      6.9497                 6.9781                 8.3752
 IR Inten    --      4.8986                26.1649                12.3158

 - Thermochemistry -
 -------------------
 Temperature   298.150 Kelvin.  Pressure   1.00000 Atm.
 Atom     1 has atomic number  6 and mass  12.00000

 Molecular mass:   337.02008 amu.
 Principal axes and moments of inertia in atomic units:
                           1         2         3
     Eigenvalues --  4864.39852********************
           X            0.99983   0.01863  -0.00010
           Y           -0.01863   0.99983  -0.00044
           Z            0.00009   0.00044   1.00000
 This molecule is an asymmetric top.
 Rotational symmetry number  1.
 Warning -- assumption of classical behavior for rotation
           may cause significant error
 Rotational temperatures (Kelvin)      0.01781     0.00653     0.00499
 Rotational constants (GHZ):           0.37101     0.13604     0.10404
 Zero-point vibrational energy     567299.8 (Joules/Mol)
                                  135.58790 (Kcal/Mol)
 Warning -- explicit consideration of  32 degrees of freedom as
           vibrations may cause significant error
 Vibrational temperatures:     21.03    37.07    56.67    59.47    94.46
          (Kelvin)            118.46   141.22   168.66   199.47   275.49
                              288.31   292.92   340.77   352.60   370.44
                              395.96   401.73   454.87   487.63   509.53
                              560.70   563.49   640.38   650.19   657.64
                              719.51   775.00   803.65   811.12   842.90
                              849.54   874.63   898.14   937.19   953.41
                              983.77  1063.99  1082.88  1134.19  1147.42
                             1153.08  1243.07  1276.06  1281.07  1284.68
                             1288.84  1317.19  1320.70  1375.74  1424.45
                             1470.27  1541.02  1624.17  1630.34  1645.98
                             1673.91  1722.33  1798.50  1829.02  1839.44
                             1899.87  1910.01  1926.40  2003.85  2049.53
                             2056.03  2133.37  2172.77  2176.73  2189.57
                             2191.45  2203.40  2208.57  2293.71  2366.37
                             2460.16  4277.25  4395.05  4409.06  4466.78
                             4506.99  4513.59  4521.98  4675.02  4727.16
                             4740.48  5229.25

 Zero-point correction=                           0.216073 (Hartree/Particle)
 Thermal correction to Energy=                    0.235703
 Thermal correction to Enthalpy=                  0.236647
 Thermal correction to Gibbs Free Energy=         0.164800
 Sum of electronic and zero-point Energies=          -1929.350003
 Sum of electronic and thermal Energies=             -1929.330373
 Sum of electronic and thermal Enthalpies=           -1929.329429
 Sum of electronic and thermal Free Energies=        -1929.401276

                     E (Thermal)             CV                S
                      KCal/Mol        Cal/Mol-Kelvin    Cal/Mol-Kelvin
 Total                  147.906             72.705            151.215
 Electronic               0.000              0.000              0.000
 Translational            0.889              2.981             43.340
 Rotational               0.889              2.981             35.369
 Vibrational            146.128             66.743             72.506
 Vibration     1          0.593              1.986              7.257
 Vibration     2          0.593              1.985              6.131
 Vibration     3          0.594              1.981              5.290
 Vibration     4          0.594              1.981              5.194
 Vibration     5          0.597              1.971              4.280
 Vibration     6          0.600              1.961              3.834
 Vibration     7          0.604              1.950              3.491
 Vibration     8          0.608              1.935              3.146
 Vibration     9          0.614              1.915              2.823
 Vibration    10          0.634              1.852              2.213
 Vibration    11          0.638              1.839              2.130
 Vibration    12          0.639              1.835              2.100
 Vibration    13          0.656              1.784              1.826
 Vibration    14          0.660              1.771              1.766
 Vibration    15          0.667              1.750              1.679
 Vibration    16          0.677              1.719              1.563
 Vibration    17          0.680              1.712              1.538
 Vibration    18          0.703              1.643              1.330
 Vibration    19          0.719              1.598              1.217
 Vibration    20          0.730              1.567              1.148
 Vibration    21          0.758              1.492              1.001
 Vibration    22          0.759              1.488              0.994
 Vibration    23          0.804              1.372              0.811
 Vibration    24          0.811              1.357              0.790
 Vibration    25          0.815              1.345              0.775
 Vibration    26          0.855              1.250              0.658
 Vibration    27          0.894              1.165              0.568
 Vibration    28          0.914              1.121              0.527
 Vibration    29          0.920              1.110              0.516
 Vibration    30          0.943              1.062              0.475
 Vibration    31          0.948              1.052              0.466
 Vibration    32          0.967              1.015              0.436

 Optimization completed.
    -- Stationary point found.
 Normal termination of Gaussian 09 at Tue Oct 30 15:11:33 2018.
