 Gaussian 09, Revision E.01,

 ----------------------------------------------------------------------
 # M062X/Gen 6D SCF=Tight INT(grid=ultrafine) OPT IOP(2/17=4) maxdisk=2
 147483648
 ----------------------------------------------------------------------

 -----------------------------
 3Chloro4TFM.M062X_6-31pGd_opt
 -----------------------------
 Symbolic Z-matrix:
 Charge =  0 Multiplicity = 1

 SCF Done:  E(RM062X) =  -1370.51526383     A.U. after   16 cycles
 SCF Done:  E(RM062X) =  -1370.52781705     A.U. after   14 cycles
 SCF Done:  E(RM062X) =  -1370.52911593     A.U. after   15 cycles
 SCF Done:  E(RM062X) =  -1370.52959113     A.U. after   14 cycles
 SCF Done:  E(RM062X) =  -1370.52964877     A.U. after   12 cycles
 SCF Done:  E(RM062X) =  -1370.52983993     A.U. after   13 cycles
 SCF Done:  E(RM062X) =  -1370.47176845     A.U. after   16 cycles
 SCF Done:  E(RM062X) =  -1370.52991848     A.U. after   11 cycles
 SCF Done:  E(RM062X) =  -1370.50562724     A.U. after   17 cycles
 SCF Done:  E(RM062X) =  -1370.52997479     A.U. after   11 cycles
 SCF Done:  E(RM062X) =  -1370.53492506     A.U. after   12 cycles
 SCF Done:  E(RM062X) =  -1370.53492976     A.U. after   12 cycles
 SCF Done:  E(RM062X) =  -1370.53493145     A.U. after   11 cycles
 SCF Done:  E(RM062X) =  -1370.53493318     A.U. after   11 cycles
 SCF Done:  E(RM062X) =  -1370.53493394     A.U. after   10 cycles
 SCF Done:  E(RM062X) =  -1370.53493412     A.U. after    9 cycles
 SCF Done:  E(RM062X) =  -1370.53493421     A.U. after    9 cycles
 SCF Done:  E(RM062X) =  -1370.53493422     A.U. after    8 cycles
 Optimization completed.
    -- Stationary point found.
 Normal termination of Gaussian 09 at Thu Nov  1 16:04:23 2018.
 Gaussian 09:  ES64L-G09RevE.01 30-Nov-2015

 ----------------------------------------------------------------------
 # M062X/Gen 6D SCF=Tight INT(grid=ultrafine) OPT IOP(2/17=4) Freq=Nora
 man maxdisk=2147483648 geom=check guess=read IOP(2/17=4)
 ----------------------------------------------------------------------

 -----------------------------
 3Chloro4TFM.M062X_6-31pGd_opt
 -----------------------------
 Structure from the checkpoint file:  "3Chloro4TFM.M062X_6-31pGd_opt.chk"
 Charge =  0 Multiplicity = 1

 SCF Done:  E(RM062X) =  -1370.53493422     A.U. after    1 cycles
 Optimization completed.
    -- Stationary point found.
 Normal termination of Gaussian 09 at Thu Nov  1 16:05:17 2018.

 ----------------------------------------------------------------------
 #N Geom=AllCheck Guess=TCheck SCRF=Check Test GenChk RM062X/ChkBas Fre
 q
 ----------------------------------------------------------------------

 Structure from the checkpoint file:  "3Chloro4TFM.M062X_6-31pGd_opt.chk"
 -----------------------------
 3Chloro4TFM.M062X_6-31pGd_opt
 -----------------------------
 Charge =  0 Multiplicity = 1

                         Standard orientation:
 ---------------------------------------------------------------------
 Center     Atomic      Atomic             Coordinates (Angstroms)
 Number     Number       Type             X           Y           Z
 ---------------------------------------------------------------------
      1          6           0        7.504201    0.452378    0.025333
      2          6           0        6.283408   -0.463297    0.081082
      3          6           0        4.990302    0.318648   -0.109739
      4          7           0        3.839305   -0.574449   -0.050063
      5          6           0        2.580274   -0.030067    0.025980
      6          8           0        2.381729    1.162254    0.174671
      7          7           0        1.565337   -0.979646   -0.049633
      8          6           0        0.186284   -0.757171   -0.019831
      9          6           0       -0.387999    0.520340   -0.031700
     10          6           0       -0.647227   -1.884363    0.005394
     11          6           0       -2.024437   -1.739154    0.016428
     12          6           0       -2.612202   -0.474629    0.002622
     13          6           0       -1.772536    0.642079   -0.021661
     14          1           0        8.429163   -0.114198    0.163102
     15          1           0        7.456680    1.214613    0.810081
     16          1           0        7.566249    0.967979   -0.938867
     17          1           0        6.244422   -0.986956    1.043570
     18          1           0        6.366988   -1.232917   -0.699069
     19          1           0        5.007966    0.865636   -1.063137
     20          1           0        4.868378    1.061342    0.683208
     21          1           0        3.943798   -1.468403   -0.514218
     22          1           0        1.844221   -1.950358    0.006077
     23          1           0        0.234051    1.404148   -0.041433
     24          1           0       -0.212728   -2.880598    0.014533
     25          1           0       -2.658124   -2.618731    0.036215
     26         17           0       -2.432406    2.250218   -0.039111
     27          6           0       -4.110903   -0.344359    0.015378
     28          9           0       -4.578001    0.294242   -1.070534
     29          9           0       -4.557063    0.327380    1.089848
     30          9           0       -4.705101   -1.552406    0.039533
 ---------------------------------------------------------------------

 SCF Done:  E(RM062X) =  -1370.53493422     A.U. after    1 cycles

 The electronic state is 1-A.
 Alpha  occ. eigenvalues -- -102.67690 -25.30014 -25.29368 -25.29362 -19.63088
 Alpha  occ. eigenvalues --  -14.82574 -14.80487 -10.81203 -10.70476 -10.63854
 Alpha  occ. eigenvalues --  -10.63399 -10.59520 -10.59184 -10.58804 -10.58068
 Alpha  occ. eigenvalues --  -10.57336 -10.56653 -10.55277  -9.82344  -7.54760
 Alpha  occ. eigenvalues --   -7.54080  -7.54050  -1.46358  -1.37128  -1.36729
 Alpha  occ. eigenvalues --   -1.19864  -1.08295  -1.04963  -1.01277  -0.95119
 Alpha  occ. eigenvalues --   -0.90729  -0.88939  -0.85395  -0.81813  -0.78858
 Alpha  occ. eigenvalues --   -0.74396  -0.72651  -0.70383  -0.69646  -0.68572
 Alpha  occ. eigenvalues --   -0.68245  -0.66777  -0.64888  -0.62262  -0.57697
 Alpha  occ. eigenvalues --   -0.56940  -0.56803  -0.55970  -0.55205  -0.54655
 Alpha  occ. eigenvalues --   -0.54025  -0.52689  -0.52585  -0.52196  -0.51001
 Alpha  occ. eigenvalues --   -0.50538  -0.50428  -0.49660  -0.48277  -0.47011
 Alpha  occ. eigenvalues --   -0.45554  -0.44249  -0.44102  -0.43020  -0.42128
 Alpha  occ. eigenvalues --   -0.41470  -0.38733  -0.38183  -0.36513  -0.34047
 Alpha  occ. eigenvalues --   -0.31790  -0.29451
 Alpha virt. eigenvalues --   -0.01384  -0.00957  -0.00278   0.01490   0.02304
 Alpha virt. eigenvalues --    0.02586   0.03143   0.03437   0.04026   0.05134
 Alpha virt. eigenvalues --    0.05244   0.05680   0.06340   0.06575   0.06748

 Mulliken charges:
               1
     1  C   -0.720647
     2  C   -0.310488
     3  C   -0.188941
     4  N   -0.575747
     5  C    0.824895
     6  O   -0.563255
     7  N   -0.659582
     8  C   -0.077402
     9  C    0.416780
    10  C   -0.991825
    11  C   -0.402602
    12  C   -1.663081
    13  C    0.874513
    14  H    0.215519
    15  H    0.216588
    16  H    0.214963
    17  H    0.227653
    18  H    0.202809
    19  H    0.217717
    20  H    0.244684
    21  H    0.385582
    22  H    0.414678
    23  H    0.294300
    24  H    0.200872
    25  H    0.245316
    26  Cl   0.276688
    27  C    1.535145
    28  F   -0.258635
    29  F   -0.256062
    30  F   -0.340437
 Sum of Mulliken charges =  -0.00000

 Dipole moment (field-independent basis, Debye):
    X=              6.4135    Y=             -4.9133    Z=             -0.8077  Tot=              8.1195
 Quadrupole moment (field-independent basis, Debye-Ang):
   XX=           -107.0359   YY=           -105.6932   ZZ=           -114.8136
   XY=             -6.3600   XZ=             -2.9965   YZ=              0.6632

  Exact polarizability: 226.668  -5.021 162.922  -0.958  -0.041 100.170
 Approx polarizability: 219.518  -8.680 216.070  -1.100   0.898 130.729

                      1                      2                      3
                      A                      A                      A
 Frequencies --     20.2920                27.7361                52.8626
 Red. masses --      5.6613                 2.9737                 7.9481
 Frc consts  --      0.0014                 0.0013                 0.0131
 IR Inten    --      0.3639                 4.0992                 1.3781

                      4                      5                      6
                      A                      A                      A
 Frequencies --     55.3647                60.7395                71.0195
 Red. masses --      4.6087                 5.5974                 2.6261
 Frc consts  --      0.0083                 0.0122                 0.0078
 IR Inten    --      1.1549                 2.2578                 2.2170

                      7                      8                      9
                      A                      A                      A
 Frequencies --    105.4518               135.6307               159.9030
 Red. masses --      5.3013                 5.9782                15.8128
 Frc consts  --      0.0347                 0.0648                 0.2382
 IR Inten    --      0.1980                 4.7680                 1.1764

                     10                     11                     12
                      A                      A                      A
 Frequencies --    181.6237               188.6121               206.4739
 Red. masses --      4.5215                 3.2469                 6.1965
 Frc consts  --      0.0879                 0.0681                 0.1556
 IR Inten    --      0.0884                 0.7786                 2.9491

                     13                     14                     15
                      A                      A                      A
 Frequencies --    236.1054               240.2504               254.8810
 Red. masses --      1.4468                 2.7632                 5.8856
 Frc consts  --      0.0475                 0.0940                 0.2253
 IR Inten    --      0.0927                 0.6425                 4.9302

                     16                     17                     18
                      A                      A                      A
 Frequencies --    319.6903               337.1186               357.0074
 Red. masses --     12.4194                 3.1637                 1.6993
 Frc consts  --      0.7478                 0.2118                 0.1276
 IR Inten    --      1.5677                45.0211                45.2514

                     19                     20                     21
                      A                      A                      A
 Frequencies --    386.2657               417.3806               426.2547
 Red. masses --      5.1691                 5.6817                 5.1903
 Frc consts  --      0.4544                 0.5832                 0.5556
 IR Inten    --      9.7954                 6.4694                 0.6353

                     22                     23                     24
                      A                      A                      A
 Frequencies --    459.8576               470.2790               492.5174
 Red. masses --      4.1420                 8.8195                 1.4125
 Frc consts  --      0.5161                 1.1492                 0.2019
 IR Inten    --      3.3221                 5.7398                94.7508

                     25                     26                     27
                      A                      A                      A
 Frequencies --    519.8658               563.8986               596.4806
 Red. masses --      3.2693                12.9958                10.5722
 Frc consts  --      0.5206                 2.4348                 2.2162
 IR Inten    --     55.5462                 1.4169                 0.5819

                     28                     29                     30
                      A                      A                      A
 Frequencies --    628.7862               652.2645               722.6570
 Red. masses --      3.3416                 6.5163                 7.3383
 Frc consts  --      0.7784                 1.6334                 2.2579
 IR Inten    --     12.9504                 8.5065                12.4385

                     31                     32                     33
                      A                      A                      A
 Frequencies --    745.4361               753.6266               766.4944
 Red. masses --      5.1178                 1.8686                 2.1182
 Frc consts  --      1.6755                 0.6253                 0.7332
 IR Inten    --      0.9080                 9.8700                 5.3712

                     34                     35                     36
                      A                      A                      A
 Frequencies --    773.0930               800.5858               844.1411
 Red. masses --      6.5148                 6.6613                 1.4931
 Frc consts  --      2.2941                 2.5155                 0.6269
 IR Inten    --     12.1639                 3.8374                43.1856

                     37                     38                     39
                      A                      A                      A
 Frequencies --    900.5487               925.6127               927.8830
 Red. masses --      1.1857                 1.4116                 1.8285
 Frc consts  --      0.5666                 0.7126                 0.9276
 IR Inten    --      2.2660                19.3456                 1.9613

                     40                     41                     42
                      A                      A                      A
 Frequencies --    956.2029               983.5891              1045.4632
 Red. masses --      4.3103                 1.3280                 4.2316
 Frc consts  --      2.3220                 0.7570                 2.7250
 IR Inten    --     24.5313                 2.5872                 2.7578

                     43                     44                     45
                      A                      A                      A
 Frequencies --   1046.5072              1080.3000              1146.9481
 Red. masses --      5.4896                 2.6345                 2.6635
 Frc consts  --      3.5422                 1.8115                 2.0644
 IR Inten    --     31.2367                 4.9171               189.6033

                     46                     47                     48
                      A                      A                      A
 Frequencies --   1147.6831              1164.8523              1180.9806
 Red. masses --      2.5490                 2.4769                 1.7287
 Frc consts  --      1.9782                 1.9802                 1.4205
 IR Inten    --      9.8663                 7.2473                 0.3604

                     49                     50                     51
                      A                      A                      A
 Frequencies --   1186.5413              1225.2298              1229.3703
 Red. masses --      1.7450                12.9513                 2.9374
 Frc consts  --      1.4475                11.4551                 2.6156
 IR Inten    --     62.8444               266.9218               198.7533

                     52                     53                     54
                      A                      A                      A
 Frequencies --   1240.5302              1282.3005              1286.4411
 Red. masses --      1.7936                 1.3442                 1.6883
 Frc consts  --      1.6263                 1.3022                 1.6462
 IR Inten    --    231.5128                97.7195                 4.7014

                     55                     56                     57
                      A                      A                      A
 Frequencies --   1307.7562              1328.4371              1347.5118
 Red. masses --      2.1506                 1.1446                 1.3454
 Frc consts  --      2.1670                 1.1901                 1.4393
 IR Inten    --      8.4471                26.4713                 3.9130

                     58                     59                     60
                      A                      A                      A
 Frequencies --   1357.1465              1372.0806              1425.8543
 Red. masses --      3.2322                 8.0949                 1.5322
 Frc consts  --      3.5075                 8.9788                 1.8354
 IR Inten    --     86.2560               578.3288                 2.7775

                     61                     62                     63
                      A                      A                      A
 Frequencies --   1438.1072              1454.2962              1516.5095
 Red. masses --      1.3166                 3.5895                 1.0593
 Frc consts  --      1.6044                 4.4729                 1.4353
 IR Inten    --      1.7404                91.5849                 7.6598

                     64                     65                     66
                      A                      A                      A
 Frequencies --   1524.7297              1527.7297              1535.0982
 Red. masses --      1.0503                 1.0745                 1.3838
 Frc consts  --      1.4386                 1.4776                 1.9213
 IR Inten    --     17.0881                 1.3956                51.9778

                     67                     68                     69
                      A                      A                      A
 Frequencies --   1542.7036              1566.2029              1581.2426
 Red. masses --      1.2636                 2.7272                 3.0606
 Frc consts  --      1.7718                 3.9415                 4.5087
 IR Inten    --    113.2275               179.7578               841.3123

                     70                     71                     72
                      A                      A                      A
 Frequencies --   1662.4203              1696.4022              1826.8678
 Red. masses --      5.2612                 6.5268                 8.8422
 Frc consts  --      8.5668                11.0665                17.3870
 IR Inten    --    161.5191               129.8712               269.9471

                     73                     74                     75
                      A                      A                      A
 Frequencies --   3055.8884              3058.7197              3080.6808
 Red. masses --      1.0693                 1.0671                 1.0363
 Frc consts  --      5.8832                 5.8823                 5.7949
 IR Inten    --     22.2048                36.6393                29.2535

                     76                     77                     78
                      A                      A                      A
 Frequencies --   3107.7344              3146.7383              3153.4876
 Red. masses --      1.0962                 1.0974                 1.1009
 Frc consts  --      6.2376                 6.4022                 6.4503
 IR Inten    --     15.6086                 1.6432                46.4074

                     79                     80                     81
                      A                      A                      A
 Frequencies --   3161.2971              3213.7323              3258.3561
 Red. masses --      1.1019                 1.0907                 1.0930
 Frc consts  --      6.4881                 6.6372                 6.8371
 IR Inten    --     27.6553                 9.4844                 0.6242

                     82                     83                     84
                      A                      A                      A
 Frequencies --   3300.3147              3621.8621              3638.2664
 Red. masses --      1.0927                 1.0774                 1.0771
 Frc consts  --      7.0124                 8.3268                 8.3999
 IR Inten    --     21.9359                20.9543                34.2957

 - Thermochemistry -
 -------------------
 Temperature   298.150 Kelvin.  Pressure   1.00000 Atm.
 Atom     1 has atomic number  6 and mass  12.00000

 Molecular mass:   280.05903 amu.
 Principal axes and moments of inertia in atomic units:
                           1         2         3
     Eigenvalues --  1609.76997********************
           X            1.00000   0.00240  -0.00043
           Y           -0.00240   1.00000   0.00101
           Z            0.00043  -0.00101   1.00000
 This molecule is an asymmetric top.
 Rotational symmetry number  1.
 Warning -- assumption of classical behavior for rotation
           may cause significant error
 Rotational temperatures (Kelvin)      0.05381     0.00601     0.00553
 Rotational constants (GHZ):           1.12112     0.12525     0.11525
 Zero-point vibrational energy     596911.5 (Joules/Mol)
                                  142.66527 (Kcal/Mol)
 Warning -- explicit consideration of  27 degrees of freedom as
           vibrations may cause significant error
 Vibrational temperatures:     29.20    39.91    76.06    79.66    87.39
          (Kelvin)            102.18   151.72   195.14   230.06   261.32
                              271.37   297.07   339.70   345.67   366.72
                              459.96   485.04   513.65   555.75   600.52
                              613.28   661.63   676.63   708.62   747.97
                              811.32   858.20   904.68   938.46  1039.74
                             1072.51  1084.30  1102.81  1112.31  1151.86
                             1214.53  1295.69  1331.75  1335.01  1375.76
                             1415.16  1504.19  1505.69  1554.31  1650.20
                             1651.26  1675.96  1699.17  1707.17  1762.83
                             1768.79  1784.84  1844.94  1850.90  1881.57
                             1911.32  1938.77  1952.63  1974.12  2051.48
                             2069.11  2092.41  2181.92  2193.74  2198.06
                             2208.66  2219.60  2253.41  2275.05  2391.85
                             2440.74  2628.45  4396.74  4400.81  4432.41
                             4471.33  4527.45  4537.16  4548.40  4623.84
                             4688.04  4748.41  5211.05  5234.65

 Zero-point correction=                           0.227352 (Hartree/Particle)
 Thermal correction to Energy=                    0.245237
 Thermal correction to Enthalpy=                  0.246181
 Thermal correction to Gibbs Free Energy=         0.178554
 Sum of electronic and zero-point Energies=          -1370.307583
 Sum of electronic and thermal Energies=             -1370.289697
 Sum of electronic and thermal Enthalpies=           -1370.288753
 Sum of electronic and thermal Free Energies=        -1370.356381

                     E (Thermal)             CV                S
                      KCal/Mol        Cal/Mol-Kelvin    Cal/Mol-Kelvin
 Total                  153.889             64.356            142.334
 Electronic               0.000              0.000              0.000
 Translational            0.889              2.981             42.788
 Rotational               0.889              2.981             34.251
 Vibrational            152.111             58.394             65.296
 Vibration     1          0.593              1.986              6.605
 Vibration     2          0.593              1.984              5.985
 Vibration     3          0.596              1.976              4.707
 Vibration     4          0.596              1.975              4.616
 Vibration     5          0.597              1.973              4.433
 Vibration     6          0.598              1.968              4.125
 Vibration     7          0.605              1.945              3.351
 Vibration     8          0.613              1.918              2.865
 Vibration     9          0.622              1.891              2.551
 Vibration    10          0.630              1.865              2.312
 Vibration    11          0.633              1.856              2.241
 Vibration    12          0.641              1.831              2.075
 Vibration    13          0.655              1.785              1.832
 Vibration    14          0.657              1.779              1.801
 Vibration    15          0.665              1.755              1.697
 Vibration    16          0.706              1.636              1.312
 Vibration    17          0.718              1.601              1.226
 Vibration    18          0.732              1.561              1.135
 Vibration    19          0.755              1.500              1.015
 Vibration    20          0.780              1.432              0.901
 Vibration    21          0.788              1.413              0.871
 Vibration    22          0.818              1.339              0.767
 Vibration    23          0.827              1.316              0.737
 Vibration    24          0.848              1.267              0.677
 Vibration    25          0.875              1.206              0.610
 Vibration    26          0.920              1.109              0.516
 Vibration    27          0.954              1.039              0.456

 Optimization completed.
    -- Stationary point found.
 Normal termination of Gaussian 09 at Thu Nov  1 16:47:49 2018.
