 Gaussian 09, Revision E.01,

 ----------------------------------------------------------------------
 # M062X/Gen 6D SCF=Tight INT(grid=ultrafine) OPT IOP(2/17=4) Freq=Nora
 man maxdisk=2147483648
 ----------------------------------------------------------------------

 -----------------
 diph_a1.M062X.opt
 -----------------
 Symbolic Z-matrix:
 Charge = -1 Multiplicity = 1

 SCF Done:  E(RM062X) =  -686.504665495     A.U. after   16 cycles
 SCF Done:  E(RM062X) =  -686.541226306     A.U. after   15 cycles
 SCF Done:  E(RM062X) =  -686.546981782     A.U. after   15 cycles
 SCF Done:  E(RM062X) =  -686.545921448     A.U. after   16 cycles
 SCF Done:  E(RM062X) =  -686.548700852     A.U. after   12 cycles
 SCF Done:  E(RM062X) =  -686.549026400     A.U. after   13 cycles
 SCF Done:  E(RM062X) =  -686.549105764     A.U. after   12 cycles
 SCF Done:  E(RM062X) =  -686.549122957     A.U. after   12 cycles
 SCF Done:  E(RM062X) =  -686.549124078     A.U. after   10 cycles
 Optimization completed.
    -- Stationary point found.
 Normal termination of Gaussian 09 at Tue Aug 21 16:32:52 2018.

 ----------------------------------------------------------------------
 #N Geom=AllCheck Guess=TCheck SCRF=Check Test GenChk RM062X/ChkBas Fre
 q
 ----------------------------------------------------------------------

 Structure from the checkpoint file:  "diph_a1.M062X.opt.chk"
 -----------------
 diph_a1.M062X.opt
 -----------------
 Charge = -1 Multiplicity = 1

 SCF Done:  E(RM062X) =  -686.549124078     A.U. after    2 cycles
 Optimization completed.
 Normal termination of Gaussian 09 at Tue Aug 21 17:08:41 2018.
 Gaussian 09:  ES64L-G09RevE.01 30-Nov-2015

 ----------------------------------------------------------------------
 # M062X/Gen 6D SCF=Tight INT(grid=ultrafine) OPT IOP(2/17=4) Freq=Nora
 man geom=check guess=read IOP(2/17=4) maxdisk=2147483648
 ----------------------------------------------------------------------

 -----------------
 diph_a1.M062X.opt
 -----------------
 Structure from the checkpoint file:  "diph_a1.M062X.opt.chk"
 Charge = -1 Multiplicity = 1

 SCF Done:  E(RM062X) =  -686.549124078     A.U. after    1 cycles
    -- Stationary point found.
 Normal termination of Gaussian 09 at Tue Aug 21 17:09:33 2018.

 ----------------------------------------------------------------------
 #N Geom=AllCheck Guess=TCheck SCRF=Check Test GenChk RM062X/ChkBas Fre
 q
 ----------------------------------------------------------------------

 Structure from the checkpoint file:  "diph_a1.M062X.opt.chk"
 -----------------
 diph_a1.M062X.opt
 -----------------
 Charge = -1 Multiplicity = 1

                         Standard orientation:
 ---------------------------------------------------------------------
 Center     Atomic      Atomic             Coordinates (Angstroms)
 Number     Number       Type             X           Y           Z
 ---------------------------------------------------------------------
      1          6           0        5.198791   -0.347444    0.000065
      2          6           0        4.791680    0.991244    0.000067
      3          6           0        4.211110   -1.333075    0.000045
      4          6           0        2.853438   -1.017177    0.000027
      5          6           0        2.420901    0.336249    0.000029
      6          6           0        3.444034    1.320429    0.000050
      7          7           0        1.130039    0.808037    0.000012
      8          6           0        0.087298   -0.025885   -0.000007
      9          8           0        0.010179   -1.267609   -0.000012
     10          7           0       -1.121680    0.737252   -0.000015
     11          6           0       -2.432774    0.326895   -0.000029
     12          6           0       -2.839899   -1.025249   -0.000039
     13          6           0       -4.194468   -1.342491   -0.000053
     14          6           0       -5.186017   -0.359384   -0.000057
     15          6           0       -4.787718    0.978295   -0.000048
     16          6           0       -3.440909    1.316913   -0.000034
     17          1           0        6.253454   -0.611509    0.000079
     18          1           0        5.535865    1.786468    0.000083
     19          1           0        4.501397   -2.383096    0.000043
     20          1           0        2.107350   -1.800542    0.000011
     21          1           0        3.126480    2.360396    0.000051
     22          1           0       -0.942677    1.732527   -0.000008
     23          1           0       -2.077230   -1.792299   -0.000035
     24          1           0       -4.479322   -2.392688   -0.000060
     25          1           0       -6.238810   -0.627263   -0.000068
     26          1           0       -5.532835    1.771101   -0.000051
     27          1           0       -3.146422    2.364838   -0.000027
 ---------------------------------------------------------------------

 SCF Done:  E(RM062X) =  -686.549124078     A.U. after    1 cycles

 The electronic state is 1-A.
 Alpha  occ. eigenvalues --  -19.44982 -14.64895 -14.56733 -10.51192 -10.48304
 Alpha  occ. eigenvalues --  -10.45061 -10.44503 -10.44103 -10.44024 -10.43903
 Alpha  occ. eigenvalues --  -10.42586 -10.42206 -10.41943 -10.41456 -10.40516
 Alpha  occ. eigenvalues --  -10.39758  -1.00288  -0.90712  -0.85430  -0.83110
 Alpha  occ. eigenvalues --   -0.79652  -0.73119  -0.71971  -0.70072  -0.67672
 Alpha  occ. eigenvalues --   -0.59275  -0.58334  -0.55221  -0.54022  -0.50511
 Alpha  occ. eigenvalues --   -0.48394  -0.46018  -0.44318  -0.41980  -0.39352
 Alpha  occ. eigenvalues --   -0.39078  -0.37965  -0.37603  -0.36912  -0.35068
 Alpha  occ. eigenvalues --   -0.34933  -0.34522  -0.32637  -0.31296  -0.29701
 Alpha  occ. eigenvalues --   -0.29256  -0.28778  -0.26062  -0.24839  -0.20536
 Alpha  occ. eigenvalues --   -0.20262  -0.19605  -0.16809  -0.15240  -0.14261
 Alpha  occ. eigenvalues --   -0.09051
 Alpha virt. eigenvalues --    0.10215   0.11586   0.11916   0.12478   0.12859
 Alpha virt. eigenvalues --    0.13337   0.13569   0.13799   0.14256   0.15576
 Alpha virt. eigenvalues --    0.15656   0.16134   0.16481   0.16635   0.17146

 Mulliken charges:
               1
     1  C   -0.182591
     2  C   -0.317939
     3  C   -0.456906
     4  C    0.382588
     5  C    0.028678
     6  C   -0.591359
     7  N   -0.448719
     8  C    0.662965
     9  O   -0.675727
    10  N   -0.622790
    11  C    0.024763
    12  C    0.828118
    13  C   -0.611260
    14  C   -0.141001
    15  C   -0.370219
    16  C   -0.814150
    17  H    0.160067
    18  H    0.162828
    19  H    0.165560
    20  H    0.248342
    21  H    0.177139
    22  H    0.424724
    23  H    0.271269
    24  H    0.178571
    25  H    0.171105
    26  H    0.174525
    27  H    0.171418
 Sum of Mulliken charges =  -1.00000

 Dipole moment (field-independent basis, Debye):
    X=             -3.4479    Y=              1.3470    Z=             -0.0000  Tot=              3.7017
 Quadrupole moment (field-independent basis, Debye-Ang):
   XX=           -140.7318   YY=            -98.2289   ZZ=           -105.8474
   XY=             -2.5095   XZ=             -0.0004   YZ=              0.0000

  Exact polarizability: 326.305   4.033 176.772   0.003   0.000  97.380
 Approx polarizability: 322.286   6.499 242.391   0.002   0.001 126.199

                      1                      2                      3
                      A                      A                      A
 Frequencies --     24.8832                31.7492                68.7813
 Red. masses --      5.8791                 3.8875                 7.3964
 Frc consts  --      0.0021                 0.0023                 0.0206
 IR Inten    --      1.8236                 0.0007                 2.3586

                      4                      5                      6
                      A                      A                      A
 Frequencies --     83.5330                97.9303               217.3496
 Red. masses --      5.3484                 5.8245                 4.6477
 Frc consts  --      0.0220                 0.0329                 0.1294
 IR Inten    --      1.3482                 0.7820                 0.0064

                      7                      8                      9
                      A                      A                      A
 Frequencies --    224.5355               244.2836               268.7757
 Red. masses --      5.0369                 6.6518                 5.7349
 Frc consts  --      0.1496                 0.2339                 0.2441
 IR Inten    --      8.0930                 0.9015                 0.7468

                     10                     11                     12
                      A                      A                      A
 Frequencies --    361.7540               381.3329               421.0508
 Red. masses --      7.5114                 6.3001                 3.1035
 Frc consts  --      0.5792                 0.5398                 0.3242
 IR Inten    --      0.1707                16.8082                 0.0004

                     13                     14                     15
                      A                      A                      A
 Frequencies --    429.1722               513.6699               525.3198
 Red. masses --      3.1106                 2.7016                 7.6699
 Frc consts  --      0.3376                 0.4200                 1.2471
 IR Inten    --      0.0558                 7.8811                11.4465

                     16                     17                     18
                      A                      A                      A
 Frequencies --    531.2293               588.7809               624.0155
 Red. masses --      2.6574                 1.0943                 6.3474
 Frc consts  --      0.4418                 0.2235                 1.4563
 IR Inten    --      8.9412                72.6392                 2.0975

                     19                     20                     21
                      A                      A                      A
 Frequencies --    626.6650               645.4202               700.2601
 Red. masses --      6.3752                 6.6181                 2.2169
 Frc consts  --      1.4751                 1.6243                 0.6405
 IR Inten    --      1.5778                 0.2661                24.2848

                     22                     23                     24
                      A                      A                      A
 Frequencies --    704.7713               756.7967               759.6025
 Red. masses --      1.9814                 1.6469                 1.9833
 Frc consts  --      0.5798                 0.5557                 0.6742
 IR Inten    --     45.4752                42.1516                49.7635

                     25                     26                     27
                      A                      A                      A
 Frequencies --    782.2702               803.0865               826.0415
 Red. masses --      5.9640                 8.2392                 5.8358
 Frc consts  --      2.1503                 3.1308                 2.3461
 IR Inten    --     39.8249                11.1021                 0.5675

                     28                     29                     30
                      A                      A                      A
 Frequencies --    846.6512               851.4470               903.2218
 Red. masses --      1.2964                 1.2680                 1.4738
 Frc consts  --      0.5475                 0.5416                 0.7084
 IR Inten    --      0.9103                 0.0579                 2.2733

                     31                     32                     33
                      A                      A                      A
 Frequencies --    904.7633               905.3736               973.0912
 Red. masses --      5.8608                 1.5666                 1.2875
 Frc consts  --      2.8267                 0.7566                 0.7183
 IR Inten    --      1.7553                24.5725                 0.0122

                     34                     35                     36
                      A                      A                      A
 Frequencies --    978.3573               994.5339               999.2606
 Red. masses --      1.2841                 1.2690                 5.4509
 Frc consts  --      0.7242                 0.7395                 3.2069
 IR Inten    --      0.2638                 1.3980               110.1624

                     37                     38                     39
                      A                      A                      A
 Frequencies --   1003.5550              1006.1228              1030.0815
 Red. masses --      5.6262                 1.2661                 6.1355
 Frc consts  --      3.3385                 0.7551                 3.8357
 IR Inten    --     19.1302                 1.6574               149.6223

                     40                     41                     42
                      A                      A                      A
 Frequencies --   1060.8942              1067.2198              1106.8641
 Red. masses --      2.0963                 1.9743                 1.4937
 Frc consts  --      1.3901                 1.3248                 1.0782
 IR Inten    --      5.3442                46.2579                14.2656

                     43                     44                     45
                      A                      A                      A
 Frequencies --   1116.6012              1169.2279              1175.9304
 Red. masses --      1.5099                 1.0774                 1.0804
 Frc consts  --      1.1092                 0.8678                 0.8803
 IR Inten    --     13.2899                 2.7384                 5.2175

                     46                     47                     48
                      A                      A                      A
 Frequencies --   1192.2211              1200.9069              1235.8436
 Red. masses --      1.1677                 1.1624                 2.5746
 Frc consts  --      0.9779                 0.9877                 2.3168
 IR Inten    --      5.1584                87.9771               298.2427

                     49                     50                     51
                      A                      A                      A
 Frequencies --   1289.3071              1314.5995              1344.7136
 Red. masses --      2.3357                 2.7058                 1.9540
 Frc consts  --      2.2876                 2.7551                 2.0818
 IR Inten    --     61.8151                18.3540               562.0970

                     52                     53                     54
                      A                      A                      A
 Frequencies --   1352.6240              1364.3359              1430.0672
 Red. masses --      1.9519                 3.1740                 4.1241
 Frc consts  --      2.1041                 3.4809                 4.9693
 IR Inten    --      3.1578               198.8384              1223.2367

                     55                     56                     57
                      A                      A                      A
 Frequencies --   1459.7559              1494.7811              1532.8055
 Red. masses --      2.0785                 2.6014                 2.3931
 Frc consts  --      2.6095                 3.4246                 3.3127
 IR Inten    --    188.5714                 1.9136               834.0589

                     58                     59                     60
                      A                      A                      A
 Frequencies --   1540.4808              1572.0253              1626.3831
 Red. masses --      2.3391                 3.4460                 5.7007
 Frc consts  --      3.2705                 5.0174                 8.8843
 IR Inten    --    167.6169                56.4858                30.3828

                     61                     62                     63
                      A                      A                      A
 Frequencies --   1649.2140              1657.8852              1684.5622
 Red. masses --      5.8492                 5.8220                 5.9075
 Frc consts  --      9.3734                 9.4282                 9.8770
 IR Inten    --     21.6225               649.4695                98.1286

                     64                     65                     66
                      A                      A                      A
 Frequencies --   1724.7867              3174.4199              3180.7950
 Red. masses --      7.4537                 1.0839                 1.0894
 Frc consts  --     13.0645                 6.4355                 6.4941
 IR Inten    --    620.4050                16.5428                51.9482

                     67                     68                     69
                      A                      A                      A
 Frequencies --   3185.6439              3195.9503              3204.4188
 Red. masses --      1.0848                 1.0878                 1.0933
 Frc consts  --      6.4864                 6.5466                 6.6146
 IR Inten    --     18.0420                 7.5082                55.4953

                     70                     71                     72
                      A                      A                      A
 Frequencies --   3209.1968              3216.8649              3225.3153
 Red. masses --      1.0925                 1.0953                 1.0966
 Frc consts  --      6.6290                 6.6783                 6.7214
 IR Inten    --     67.4471                36.8166                45.8754

                     73                     74                     75
                      A                      A                      A
 Frequencies --   3282.2952              3282.8665              3646.4102
 Red. masses --      1.0916                 1.0926                 1.0766
 Frc consts  --      6.9287                 6.9376                 8.4337
 IR Inten    --      8.7595                 9.3725                31.8524

 - Thermochemistry -
 -------------------
 Temperature   298.150 Kelvin.  Pressure   1.00000 Atm.
 Atom     1 has atomic number  6 and mass  12.00000

 Molecular mass:   211.08714 amu.
 Principal axes and moments of inertia in atomic units:
                           1         2         3
     Eigenvalues --   787.475968884.766269672.24222
           X            1.00000  -0.00070  -0.00001
           Y            0.00070   1.00000  -0.00001
           Z            0.00001   0.00001   1.00000
 This molecule is an asymmetric top.
 Rotational symmetry number  1.
 Warning -- assumption of classical behavior for rotation
           may cause significant error
 Rotational temperatures (Kelvin)      0.10999     0.00975     0.00895
 Rotational constants (GHZ):           2.29180     0.20313     0.18659
 Zero-point vibrational energy     561094.8 (Joules/Mol)
                                  134.10489 (Kcal/Mol)
 Warning -- explicit consideration of  17 degrees of freedom as
           vibrations may cause significant error
 Vibrational temperatures:     35.80    45.68    98.96   120.19   140.90
          (Kelvin)            312.72   323.06   351.47   386.71   520.48
                              548.65   605.80   617.48   739.06   755.82
                              764.32   847.12   897.82   901.63   928.61
                             1007.52  1014.01  1088.86  1092.90  1125.51
                             1155.46  1188.49  1218.14  1225.04  1299.53
                             1301.75  1302.63  1400.06  1407.64  1430.91
                             1437.71  1443.89  1447.58  1482.06  1526.39
                             1535.49  1592.53  1606.54  1682.26  1691.90
                             1715.34  1727.84  1778.10  1855.02  1891.41
                             1934.74  1946.12  1962.97  2057.55  2100.26
                             2150.65  2205.36  2216.41  2261.79  2340.00
                             2372.85  2385.32  2423.71  2481.58  4567.28
                             4576.45  4583.43  4598.25  4610.44  4617.31
                             4628.35  4640.50  4722.48  4723.31  5246.36

 Zero-point correction=                           0.213710 (Hartree/Particle)
 Thermal correction to Energy=                    0.226556
 Thermal correction to Enthalpy=                  0.227500
 Thermal correction to Gibbs Free Energy=         0.172195
 Sum of electronic and zero-point Energies=           -686.335414
 Sum of electronic and thermal Energies=              -686.322568
 Sum of electronic and thermal Enthalpies=            -686.321624
 Sum of electronic and thermal Free Energies=         -686.376929

                     E (Thermal)             CV                S
                      KCal/Mol        Cal/Mol-Kelvin    Cal/Mol-Kelvin
 Total                  142.166             50.214            116.399
 Electronic               0.000              0.000              0.000
 Translational            0.889              2.981             41.945
 Rotational               0.889              2.981             32.581
 Vibrational            140.388             44.252             41.873
 Vibration     1          0.593              1.985              6.201
 Vibration     2          0.594              1.983              5.717
 Vibration     3          0.598              1.969              4.188
 Vibration     4          0.600              1.961              3.806
 Vibration     5          0.603              1.951              3.495
 Vibration     6          0.646              1.815              1.981
 Vibration     7          0.649              1.804              1.922
 Vibration     8          0.660              1.772              1.771
 Vibration     9          0.673              1.731              1.604
 Vibration    10          0.736              1.551              1.115
 Vibration    11          0.751              1.510              1.034
 Vibration    12          0.784              1.424              0.888
 Vibration    13          0.791              1.407              0.861
 Vibration    14          0.869              1.220              0.625
 Vibration    15          0.880              1.194              0.598
 Vibration    16          0.886              1.181              0.584
 Vibration    17          0.946              1.056              0.469

 Optimization completed.
    -- Stationary point found.
 Normal termination of Gaussian 09 at Tue Aug 21 17:41:20 2018.
