 Gaussian 09, Revision E.01,

 ----------------------------------------------------------------------
 # M062X/Gen 6D SCF=Tight INT(grid=ultrafine) OPT IOP(2/17=4) Freq=Nora
 man SCRF=(SMD,Solvent=h2o) maxdisk=2147483648
 ----------------------------------------------------------------------

 ----------------------------------------
 aryl_urea_dichloro_CF3.M062X.SMD.h2o.opt
 ----------------------------------------
 Symbolic Z-matrix:
 Charge =  0 Multiplicity = 1

 SCF Done:  E(RM062X) =  -1830.09462718     A.U. after   15 cycles
 SCF Done:  E(RM062X) =  -1830.10837125     A.U. after   16 cycles
 SCF Done:  E(RM062X) =  -1830.11341857     A.U. after   16 cycles
 SCF Done:  E(RM062X) =  -1830.11665552     A.U. after   14 cycles
 SCF Done:  E(RM062X) =  -1830.11724119     A.U. after   13 cycles
 SCF Done:  E(RM062X) =  -1830.11736197     A.U. after   13 cycles
 SCF Done:  E(RM062X) =  -1830.11744468     A.U. after   13 cycles
 SCF Done:  E(RM062X) =  -1830.11748857     A.U. after   11 cycles
 SCF Done:  E(RM062X) =  -1830.11750649     A.U. after   11 cycles
 SCF Done:  E(RM062X) =  -1830.11751322     A.U. after   11 cycles
 SCF Done:  E(RM062X) =  -1830.11754176     A.U. after   11 cycles
 SCF Done:  E(RM062X) =  -1830.11754646     A.U. after   12 cycles
 SCF Done:  E(RM062X) =  -1830.11755091     A.U. after   11 cycles
 SCF Done:  E(RM062X) =  -1830.11753467     A.U. after   13 cycles
 SCF Done:  E(RM062X) =  -1830.11755691     A.U. after   13 cycles
 SCF Done:  E(RM062X) =  -1830.11755670     A.U. after    9 cycles
 SCF Done:  E(RM062X) =  -1830.11755674     A.U. after    8 cycles
 Optimization completed.
    -- Stationary point found.
 Normal termination of Gaussian 09 at Tue Jul 10 14:55:40 2018.

 ----------------------------------------------------------------------
 #N Geom=AllCheck Guess=TCheck SCRF=Check Test GenChk RM062X/ChkBas Fre
 q
 ----------------------------------------------------------------------

 Structure from the checkpoint file:  "aryl_urea_dichloro_CF3.M062X.SMD.h2o.opt.chk"
 ----------------------------------------
 aryl_urea_dichloro_CF3.M062X.SMD.h2o.opt
 ----------------------------------------
 Charge =  0 Multiplicity = 1

 SCF Done:  E(RM062X) =  -1830.11755674     A.U. after    1 cycles

 - Thermochemistry -
 -------------------
 Temperature   298.150 Kelvin.  Pressure   1.00000 Atm.
 Atom     1 has atomic number  6 and mass  12.00000

 Molecular mass:   314.02005 amu.
 Principal axes and moments of inertia in atomic units:
                           1         2         3
     Eigenvalues --  2857.56206********************
           X            0.99998   0.00033  -0.00698
           Y           -0.00037   0.99998  -0.00640
           Z            0.00698   0.00641   0.99996
 This molecule is an asymmetric top.
 Rotational symmetry number  1.
 Warning -- assumption of classical behavior for rotation
           may cause significant error
 Rotational temperatures (Kelvin)      0.03031     0.00638     0.00563
 Rotational constants (GHZ):           0.63157     0.13285     0.11724
 Zero-point vibrational energy     568273.3 (Joules/Mol)
                                  135.82058 (Kcal/Mol)
 Warning -- explicit consideration of  30 degrees of freedom as
           vibrations may cause significant error
 Vibrational temperatures:     27.82    32.16    49.47    65.47    81.08
          (Kelvin)            103.38   138.57   162.31   195.06   211.04
                              216.31   279.67   301.48   333.51   343.68
                              414.10   420.07   469.87   472.12   486.56
                              512.75   566.14   596.34   621.74   667.65
                              747.12   757.32   767.47   785.94   881.50
                              960.93   991.10  1025.13  1090.29  1104.29
                             1122.90  1170.82  1227.09  1305.40  1309.92
                             1318.98  1328.14  1342.06  1509.23  1555.94
                             1601.87  1642.55  1656.67  1674.89  1688.95
                             1702.75  1731.60  1798.00  1827.64  1845.25
                             1873.48  1901.65  1911.11  1938.79  1973.95
                             2042.71  2053.90  2080.42  2147.05  2160.31
                             2161.37  2177.03  2205.28  2231.06  2266.87
                             2377.15  2425.97  2452.21  4423.15  4428.50
                             4436.28  4470.74  4500.12  4529.60  4543.25
                             4679.28  4693.37  5162.13  5208.13

 Zero-point correction=                           0.216444 (Hartree/Particle)
 Thermal correction to Energy=                    0.235758
 Thermal correction to Enthalpy=                  0.236702
 Thermal correction to Gibbs Free Energy=         0.165062
 Sum of electronic and zero-point Energies=          -1829.901113
 Sum of electronic and thermal Energies=             -1829.881799
 Sum of electronic and thermal Enthalpies=           -1829.880855
 Sum of electronic and thermal Free Energies=        -1829.952494

                     E (Thermal)             CV                S
                      KCal/Mol        Cal/Mol-Kelvin    Cal/Mol-Kelvin
 Total                  147.940             68.399            150.778
 Electronic               0.000              0.000              0.000
 Translational            0.889              2.981             43.129
 Rotational               0.889              2.981             34.746
 Vibrational            146.163             62.438             72.903
 Vibration     1          0.593              1.986              6.701
 Vibration     2          0.593              1.985              6.413
 Vibration     3          0.594              1.983              5.559
 Vibration     4          0.595              1.979              5.004
 Vibration     5          0.596              1.975              4.581
 Vibration     6          0.598              1.967              4.102
 Vibration     7          0.603              1.952              3.528
 Vibration     8          0.607              1.939              3.220
 Vibration     9          0.613              1.918              2.865
 Vibration    10          0.617              1.906              2.715
 Vibration    11          0.618              1.902              2.668
 Vibration    12          0.635              1.848              2.186
 Vibration    13          0.642              1.826              2.048
 Vibration    14          0.653              1.792              1.865
 Vibration    15          0.657              1.781              1.811
 Vibration    16          0.685              1.696              1.487
 Vibration    17          0.687              1.689              1.463
 Vibration    18          0.710              1.622              1.277
 Vibration    19          0.711              1.619              1.269
 Vibration    20          0.718              1.599              1.221
 Vibration    21          0.732              1.562              1.138
 Vibration    22          0.761              1.484              0.987
 Vibration    23          0.778              1.439              0.911
 Vibration    24          0.793              1.400              0.852
 Vibration    25          0.822              1.330              0.754
 Vibration    26          0.874              1.207              0.612
 Vibration    27          0.881              1.192              0.595
 Vibration    28          0.888              1.176              0.580
 Vibration    29          0.901              1.148              0.552
 Vibration    30          0.972              1.005              0.428

 Normal termination of Gaussian 09 at Tue Jul 10 15:46:46 2018.
 Gaussian 09:  ES64L-G09RevE.01 30-Nov-2015

 ----------------------------------------------------------------------
 # M062X/Gen 6D SCF=Tight INT(grid=ultrafine) OPT IOP(2/17=4) Freq=Nora
 man SCRF=(SMD,Solvent=h2o) geom=check guess=read IOP(2/17=4) maxdisk=2
 147483648
 ----------------------------------------------------------------------

 ----------------------------------------
 aryl_urea_dichloro_CF3.M062X.SMD.h2o.opt
 ----------------------------------------
 Structure from the checkpoint file:  "aryl_urea_dichloro_CF3.M062X.SMD.h2o.opt.chk"
 Charge =  0 Multiplicity = 1

 SCF Done:  E(RM062X) =  -1830.11755674     A.U. after    1 cycles
 Optimization completed.
    -- Stationary point found.
 Normal termination of Gaussian 09 at Tue Jul 10 15:48:02 2018.

 ----------------------------------------------------------------------
 #N Geom=AllCheck Guess=TCheck SCRF=Check Test GenChk RM062X/ChkBas Fre
 q
 ----------------------------------------------------------------------

 Structure from the checkpoint file:  "aryl_urea_dichloro_CF3.M062X.SMD.h2o.opt.chk"
 ----------------------------------------
 aryl_urea_dichloro_CF3.M062X.SMD.h2o.opt
 ----------------------------------------
 Charge =  0 Multiplicity = 1

                         Standard orientation:
 ---------------------------------------------------------------------
 Center     Atomic      Atomic             Coordinates (Angstroms)
 Number     Number       Type             X           Y           Z
 ---------------------------------------------------------------------
      1          6           0        2.843486   -0.067775    0.093139
      2          6           0        2.281861    1.201858   -0.006936
      3          6           0        0.930342    1.308269   -0.296739
      4          6           0        0.123371    0.180830   -0.515309
      5          6           0        0.738333   -1.075440   -0.427683
      6          6           0        2.085254   -1.213096   -0.113096
      7          7           0       -1.236154    0.302039   -0.834200
      8          6           0       -2.206660   -0.095385    0.081850
      9          7           0       -3.475229    0.128092   -0.302355
     10          8           0       -1.906845   -0.624036    1.160637
     11          6           0       -4.600163   -0.186176    0.571150
     12          6           0       -5.910659    0.200866   -0.096595
     13          6           0       -7.100037   -0.111868    0.805501
     14          1           0       -1.491220    1.051408   -1.471477
     15          1           0       -3.660498    0.539641   -1.210778
     16          1           0       -4.484171    0.353399    1.518421
     17          1           0       -4.594692   -1.258386    0.798692
     18          1           0       -6.005975   -0.341310   -1.045338
     19          1           0       -5.891946    1.271330   -0.335211
     20          1           0       -7.141736   -1.180721    1.042225
     21          1           0       -8.041653    0.163156    0.321274
     22          1           0       -7.031483    0.440554    1.749076
     23          1           0        2.879743    2.093915    0.153813
     24          1           0        2.529417   -2.200265   -0.047543
     25          6           0        4.309771   -0.171487    0.401002
     26          9           0        4.700232   -1.432512    0.637390
     27          9           0        5.067694    0.289429   -0.615044
     28          9           0        4.648172    0.556900    1.482063
     29         17           0       -0.184123   -2.507520   -0.762020
     30         17           0        0.210853    2.889915   -0.374436
 ---------------------------------------------------------------------

 SCF Done:  E(RM062X) =  -1830.11755674     A.U. after    1 cycles

 The electronic state is 1-A.
 Alpha  occ. eigenvalues -- -102.69198-102.68738 -25.31346 -25.30989 -25.30883
 Alpha  occ. eigenvalues --  -19.62742 -14.80450 -14.79061 -10.82340 -10.69681
 Alpha  occ. eigenvalues --  -10.64251 -10.64072 -10.63632 -10.60189 -10.59097
 Alpha  occ. eigenvalues --  -10.59063 -10.57812 -10.54236 -10.52982  -9.83820
 Alpha  occ. eigenvalues --   -9.83343  -7.56228  -7.55758  -7.55562  -7.55538
 Alpha  occ. eigenvalues --   -7.55086  -7.55056  -1.47747  -1.38589  -1.38112
 Alpha  occ. eigenvalues --   -1.18793  -1.07592  -1.04327  -1.00863  -0.99389
 Alpha  occ. eigenvalues --   -0.95606  -0.89158  -0.87539  -0.84965  -0.82295
 Alpha  occ. eigenvalues --   -0.78044  -0.74027  -0.72291  -0.70014  -0.69771
 Alpha  occ. eigenvalues --   -0.68610  -0.68257  -0.65761  -0.64354  -0.62376
 Alpha  occ. eigenvalues --   -0.59307  -0.58190  -0.57657  -0.55679  -0.55263
 Alpha  occ. eigenvalues --   -0.54351  -0.54049  -0.53865  -0.52171  -0.52144
 Alpha  occ. eigenvalues --   -0.52015  -0.51501  -0.51347  -0.49518  -0.46767
 Alpha  occ. eigenvalues --   -0.46652  -0.46091  -0.45216  -0.44633  -0.42083
 Alpha  occ. eigenvalues --   -0.40475  -0.40081  -0.39901  -0.39422  -0.38993
 Alpha  occ. eigenvalues --   -0.37170  -0.36579  -0.33163  -0.31711  -0.30531
 Alpha virt. eigenvalues --   -0.01915  -0.01003   0.00763   0.02247   0.02485
 Alpha virt. eigenvalues --    0.03500   0.03747   0.04237   0.04454   0.04636
 Alpha virt. eigenvalues --    0.05225   0.05630   0.06083   0.06419   0.07140

 Mulliken charges:
               1
     1  C   -1.174320
     2  C    0.376380
     3  C   -0.481875
     4  C    0.384907
     5  C   -0.086229
     6  C   -0.243247
     7  N   -0.752910
     8  C    0.424265
     9  N   -0.662314
    10  O   -0.689854
    11  C   -0.251605
    12  C   -0.350999
    13  C   -0.746810
    14  H    0.502648
    15  H    0.489889
    16  H    0.239165
    17  H    0.239778
    18  H    0.235152
    19  H    0.234727
    20  H    0.222730
    21  H    0.223978
    22  H    0.222766
    23  H    0.303970
    24  H    0.299182
    25  C    1.481844
    26  F   -0.334933
    27  F   -0.273526
    28  F   -0.283616
    29  Cl   0.206334
    30  Cl   0.244520
 Sum of Mulliken charges =   0.00000

 Dipole moment (field-independent basis, Debye):
    X=             -4.8363    Y=              3.3125    Z=             -4.9402  Tot=              7.6660
 Quadrupole moment (field-independent basis, Debye-Ang):
   XX=           -109.2391   YY=           -122.7538   ZZ=           -127.2468
   XY=             -6.3151   XZ=              8.7095   YZ=             -0.9969

  Exact polarizability: 274.714   0.366 250.879  15.352  -2.858 172.702
 Approx polarizability: 224.598  -0.499 224.074  15.795  -2.764 157.488

                      1                      2                      3
                      A                      A                      A
 Frequencies --     19.3392                22.3545                34.3822
 Red. masses --      7.3559                10.5487                 8.6602
 Frc consts  --      0.0016                 0.0031                 0.0060
 IR Inten    --      0.6692                 1.9947                 1.4395

                      4                      5                      6
                      A                      A                      A
 Frequencies --     45.5007                56.3529                71.8556
 Red. masses --      1.7887                 5.0441                 4.7890
 Frc consts  --      0.0022                 0.0094                 0.0146
 IR Inten    --      0.3502                14.6442                21.4064

                      7                      8                      9
                      A                      A                      A
 Frequencies --     96.3106               112.8099               135.5742
 Red. masses --      5.7875                13.2994                15.0508
 Frc consts  --      0.0316                 0.0997                 0.1630
 IR Inten    --      7.3085                 3.1005                 4.6933

                     10                     11                     12
                      A                      A                      A
 Frequencies --    146.6837               150.3415               194.3776
 Red. masses --      4.6402                 3.4304                14.7121
 Frc consts  --      0.0588                 0.0457                 0.3275
 IR Inten    --     18.1244                 7.6268                 4.8146

                     13                     14                     15
                      A                      A                      A
 Frequencies --    209.5393               231.7989               238.8714
 Red. masses --      4.7097                 6.4140                 1.1295
 Frc consts  --      0.1218                 0.2030                 0.0380
 IR Inten    --      0.4228                10.8079                 0.4733

                     16                     17                     18
                      A                      A                      A
 Frequencies --    287.8155               291.9610               326.5761
 Red. masses --      8.7089                 7.9468                 3.1288
 Frc consts  --      0.4251                 0.3991                 0.1966
 IR Inten    --      4.6341                 8.7054                43.7119

                     19                     20                     21
                      A                      A                      A
 Frequencies --    328.1424               338.1760               356.3811
 Red. masses --      6.3400                 7.1529                 1.3907
 Frc consts  --      0.4022                 0.4820                 0.1041
 IR Inten    --     24.9915                10.1800                39.5112

                     22                     23                     24
                      A                      A                      A
 Frequencies --    393.4890               414.4755               432.1334
 Red. masses --      6.3637                 3.0913                 1.8140
 Frc consts  --      0.5805                 0.3129                 0.1996
 IR Inten    --     19.1956                91.0925               212.5881

                     25                     26                     27
                      A                      A                      A
 Frequencies --    464.0396               519.2771               526.3664
 Red. masses --      9.5741                 5.2994                 7.0073
 Frc consts  --      1.2147                 0.8419                 1.1439
 IR Inten    --     14.2601                11.0458                 9.9270

                     28                     29                     30
                      A                      A                      A
 Frequencies --    533.4198               546.2552               612.6760
 Red. masses --      5.5557                 9.2232                 8.1730
 Frc consts  --      0.9314                 1.6215                 1.8076
 IR Inten    --      0.7151                 1.0221                 0.2087

                     31                     32                     33
                      A                      A                      A
 Frequencies --    667.8821               688.8526               712.5043
 Red. masses --      7.1765                11.1111                 4.1629
 Frc consts  --      1.8861                 3.1064                 1.2451
 IR Inten    --      6.6366                40.1775                36.6913

                     34                     35                     36
                      A                      A                      A
 Frequencies --    757.7906               767.5242               780.4590
 Red. masses --      2.2768                 1.6475                 7.3295
 Frc consts  --      0.7703                 0.5718                 2.6304
 IR Inten    --     39.3986                 6.4006                 5.5985

                     37                     38                     39
                      A                      A                      A
 Frequencies --    813.7608               852.8730               907.3016
 Red. masses --     10.2767                 8.8896                 1.1555
 Frc consts  --      4.0096                 3.8098                 0.5604
 IR Inten    --    135.5912                53.4306                 2.3595

                     40                     41                     42
                      A                      A                      A
 Frequencies --    910.4405               916.7391               923.1035
 Red. masses --      2.0574                 2.8298                 1.3793
 Frc consts  --      1.0048                 1.4012                 0.6925
 IR Inten    --     75.1443                35.6152                 5.0339

                     43                     44                     45
                      A                      A                      A
 Frequencies --    932.7811              1048.9681              1081.4368
 Red. masses --      1.7607                 4.3541                 2.6849
 Frc consts  --      0.9026                 2.8227                 1.8501
 IR Inten    --      2.3734                22.3026                 9.5639

                     46                     47                     48
                      A                      A                      A
 Frequencies --   1113.3558              1141.6299              1151.4470
 Red. masses --      2.7658                 5.1502                 2.4357
 Frc consts  --      2.0200                 3.9548                 1.9026
 IR Inten    --      5.7800               113.6740                25.9387

                     49                     50                     51
                      A                      A                      A
 Frequencies --   1164.1066              1173.8808              1183.4698
 Red. masses --     12.2486                 3.3057                 1.6059
 Frc consts  --      9.7796                 2.6839                 1.3252
 IR Inten    --    438.1348                 0.7348                 0.1059

                     52                     53                     54
                      A                      A                      A
 Frequencies --   1203.5260              1249.6756              1270.2775
 Red. masses --     12.3629                 1.4716                 1.6664
 Frc consts  --     10.5507                 1.3541                 1.5843
 IR Inten    --    339.8489                50.4045               218.6735

                     55                     56                     57
                      A                      A                      A
 Frequencies --   1282.5177              1302.1326              1321.7167
 Red. masses --      1.1918                 2.2774                 4.3993
 Frc consts  --      1.1550                 2.2751                 4.5281
 IR Inten    --      0.7813                90.5724                85.2607

                     58                     59                     60
                      A                      A                      A
 Frequencies --   1328.2870              1347.5260              1371.9634
 Red. masses --      1.0720                 1.4599                 7.4846
 Frc consts  --      1.1144                 1.5619                 8.3005
 IR Inten    --      0.5311                54.4980               759.6892

                     61                     62                     63
                      A                      A                      A
 Frequencies --   1419.7583              1427.5352              1445.9677
 Red. masses --      1.3272                 1.5531                 2.9858
 Frc consts  --      1.5762                 1.8648                 3.6782
 IR Inten    --      7.8167                 6.1145               229.5662

                     64                     65                     66
                      A                      A                      A
 Frequencies --   1492.2744              1501.4890              1502.2309
 Red. masses --      1.0570                 1.8097                 1.0587
 Frc consts  --      1.3868                 2.4038                 1.4077
 IR Inten    --     10.9437                46.2014                11.2981

                     67                     68                     69
                      A                      A                      A
 Frequencies --   1513.1130              1532.7492              1550.6627
 Red. masses --      1.0971                 1.0981                 5.1724
 Frc consts  --      1.4799                 1.5200                 7.3279
 IR Inten    --     16.4842                54.6873               240.5631

                     70                     71                     72
                      A                      A                      A
 Frequencies --   1575.5577              1652.2012              1686.1365
 Red. masses --      2.6431                 7.6387                 6.8843
 Frc consts  --      3.8658                12.2855                11.5318
 IR Inten    --    948.8025                41.8207               193.6219

                     73                     74                     75
                      A                      A                      A
 Frequencies --   1704.3739              3074.2456              3077.9674
 Red. masses --      7.2584                 1.0602                 1.0367
 Frc consts  --     12.4228                 5.9035                 5.7868
 IR Inten    --    653.6397                13.1129                27.8972

                     76                     77                     78
                      A                      A                      A
 Frequencies --   3083.3693              3107.3209              3127.7464
 Red. masses --      1.0574                 1.1039                 1.1076
 Frc consts  --      5.9232                 6.2799                 6.3843
 IR Inten    --     95.0378                 0.1185                52.0646

                     79                     80                     81
                      A                      A                      A
 Frequencies --   3148.2316              3157.7222              3252.2671
 Red. masses --      1.1040                 1.1023                 1.0942
 Frc consts  --      6.4469                 6.4756                 6.8190
 IR Inten    --     94.0173                46.8206                 7.7302

                     82                     83                     84
                      A                      A                      A
 Frequencies --   3262.0577              3587.8640              3619.8341
 Red. masses --      1.0940                 1.0775                 1.0798
 Frc consts  --      6.8589                 8.1725                 8.3365
 IR Inten    --      9.2536               133.0701               176.9325

     Normal termination of Gaussian 09 at Tue Jul 10 16:38:52 2018.
