 Gaussian 09, Revision E.01,

 ----------------------------------------------------------------------
 # M062X/Gen 6D SCF=Tight INT(grid=ultrafine) OPT IOP(2/17=4) Freq=Nora
 man maxdisk=2147483648
 ----------------------------------------------------------------------

 -----------------------------------
 aryl_urea_dichloro_CF3_a1.M062X.opt
 -----------------------------------
 Symbolic Z-matrix:
 Charge = -1 Multiplicity = 1

 SCF Done:  E(RM062X) =  -1829.52867702     A.U. after   17 cycles
 SCF Done:  E(RM062X) =  -1829.55551424     A.U. after   17 cycles
 SCF Done:  E(RM062X) =  -1829.54645484     A.U. after   17 cycles
 SCF Done:  E(RM062X) =  -1829.56028360     A.U. after   13 cycles
 SCF Done:  E(RM062X) =  -1829.56139586     A.U. after   15 cycles
 SCF Done:  E(RM062X) =  -1829.56206147     A.U. after   14 cycles
 SCF Done:  E(RM062X) =  -1829.56203430     A.U. after   14 cycles
 SCF Done:  E(RM062X) =  -1829.56222460     A.U. after   14 cycles
 SCF Done:  E(RM062X) =  -1829.56227982     A.U. after   14 cycles
 SCF Done:  E(RM062X) =  -1829.56237194     A.U. after   14 cycles
 SCF Done:  E(RM062X) =  -1829.56433840     A.U. after   14 cycles
 SCF Done:  E(RM062X) =  -1829.56433693     A.U. after   14 cycles
 SCF Done:  E(RM062X) =  -1829.56434190     A.U. after   13 cycles
 SCF Done:  E(RM062X) =  -1829.56434418     A.U. after   13 cycles
 SCF Done:  E(RM062X) =  -1829.56434454     A.U. after   13 cycles
 SCF Done:  E(RM062X) =  -1829.56434459     A.U. after   10 cycles
 SCF Done:  E(RM062X) =  -1829.56434460     A.U. after    9 cycles
 Optimization completed.
    -- Stationary point found.
 Normal termination of Gaussian 09 at Tue Jul 10 16:48:57 2018.

 ----------------------------------------------------------------------
 #N Geom=AllCheck Guess=TCheck SCRF=Check Test GenChk RM062X/ChkBas Fre
 q
 ----------------------------------------------------------------------

 Structure from the checkpoint file:  "aryl_urea_dichloro_CF3_a1.M062X.opt.chk"
 -----------------------------------
 aryl_urea_dichloro_CF3_a1.M062X.opt
 -----------------------------------
 Charge = -1 Multiplicity = 1

 SCF Done:  E(RM062X) =  -1829.56434460     A.U. after    1 cycles
 Optimization completed.
 Normal termination of Gaussian 09 at Tue Jul 10 17:36:27 2018.
 Gaussian 09:  ES64L-G09RevE.01 30-Nov-2015

 ----------------------------------------------------------------------
 # M062X/Gen 6D SCF=Tight INT(grid=ultrafine) OPT IOP(2/17=4) Freq=Nora
 man geom=check guess=read IOP(2/17=4) maxdisk=2147483648
 ----------------------------------------------------------------------

 -----------------------------------
 aryl_urea_dichloro_CF3_a1.M062X.opt
 -----------------------------------
 Structure from the checkpoint file:  "aryl_urea_dichloro_CF3_a1.M062X.opt.chk"
 Charge = -1 Multiplicity = 1

 SCF Done:  E(RM062X) =  -1829.56434460     A.U. after    1 cycles
    -- Stationary point found.
 Normal termination of Gaussian 09 at Tue Jul 10 17:37:28 2018.

 ----------------------------------------------------------------------
 #N Geom=AllCheck Guess=TCheck SCRF=Check Test GenChk RM062X/ChkBas Fre
 q
 ----------------------------------------------------------------------

 Structure from the checkpoint file:  "aryl_urea_dichloro_CF3_a1.M062X.opt.chk"
 -----------------------------------
 aryl_urea_dichloro_CF3_a1.M062X.opt
 -----------------------------------
 Charge = -1 Multiplicity = 1

                         Standard orientation:
 ---------------------------------------------------------------------
 Center     Atomic      Atomic             Coordinates (Angstroms)
 Number     Number       Type             X           Y           Z
 ---------------------------------------------------------------------
      1          6           0        2.863933   -0.153086   -0.008089
      2          6           0        2.405825    1.166149   -0.036422
      3          6           0        1.054274    1.415325   -0.162736
      4          6           0        0.049086    0.399510   -0.249538
      5          6           0        0.596768   -0.924893   -0.268055
      6          6           0        1.946675   -1.196522   -0.133093
      7          7           0       -1.234376    0.738398   -0.411502
      8          6           0       -2.216407    0.076626    0.245286
      9          7           0       -3.474688    0.288774   -0.345260
     10          8           0       -2.124050   -0.604895    1.273591
     11          6           0       -4.670613    0.139531    0.449946
     12          6           0       -5.873568   -0.246678   -0.407385
     13          6           0       -7.147411   -0.391014    0.423342
     14          1           0       -3.458295    1.061887   -0.999681
     15          1           0       -4.908051    1.058202    1.018131
     16          1           0       -4.458954   -0.642240    1.185121
     17          1           0       -5.642492   -1.185303   -0.924548
     18          1           0       -6.025893    0.511751   -1.188398
     19          1           0       -7.021924   -1.158164    1.196212
     20          1           0       -8.005741   -0.674164   -0.195546
     21          1           0       -7.394881    0.549417    0.930088
     22          1           0        3.099959    1.996724    0.042896
     23          1           0        2.284947   -2.227486   -0.158562
     24          6           0        4.306964   -0.436461    0.201257
     25          9           0        4.690439   -1.622179   -0.322175
     26          9           0        5.109262    0.505982   -0.346275
     27          9           0        4.664738   -0.489271    1.511612
     28         17           0       -0.450955   -2.277663   -0.609805
     29         17           0        0.534136    3.084524   -0.196821
 ---------------------------------------------------------------------

 SCF Done:  E(RM062X) =  -1829.56434460     A.U. after    2 cycles

 The electronic state is 1-A.
 Alpha  occ. eigenvalues -- -102.55052-102.54545 -25.19988 -25.19905 -25.19192
 Alpha  occ. eigenvalues --  -19.45275 -14.63467 -14.58342 -10.70587 -10.51747
 Alpha  occ. eigenvalues --  -10.49197 -10.49167 -10.48478 -10.46044 -10.46015
 Alpha  occ. eigenvalues --  -10.45937 -10.45865 -10.45598 -10.45000  -9.69658
 Alpha  occ. eigenvalues --   -9.69143  -7.42058  -7.41549  -7.41424  -7.41388
 Alpha  occ. eigenvalues --   -7.40899  -7.40869  -1.36035  -1.27106  -1.26319
 Alpha  occ. eigenvalues --   -1.00879  -0.90423  -0.88669  -0.84843  -0.84486
 Alpha  occ. eigenvalues --   -0.81496  -0.78013  -0.74318  -0.71178  -0.69100
 Alpha  occ. eigenvalues --   -0.66157  -0.61166  -0.59267  -0.58336  -0.57637
 Alpha  occ. eigenvalues --   -0.55774  -0.53257  -0.51895  -0.48118  -0.47152
 Alpha  occ. eigenvalues --   -0.46778  -0.44815  -0.43745  -0.42701  -0.42420
 Alpha  occ. eigenvalues --   -0.42146  -0.40984  -0.40709  -0.39918  -0.39359
 Alpha  occ. eigenvalues --   -0.38095  -0.37122  -0.36261  -0.35073  -0.34008
 Alpha  occ. eigenvalues --   -0.33878  -0.32608  -0.31625  -0.30606  -0.29644
 Alpha  occ. eigenvalues --   -0.29444  -0.27052  -0.25992  -0.24770  -0.24500
 Alpha  occ. eigenvalues --   -0.19895  -0.18230  -0.17434  -0.16146  -0.11737
 Alpha virt. eigenvalues --    0.10006   0.11121   0.11567   0.12138   0.12361
 Alpha virt. eigenvalues --    0.12540   0.12677   0.13062   0.14098   0.14273
 Alpha virt. eigenvalues --    0.14410   0.15009   0.15629   0.16236   0.16786

 Mulliken charges:
               1
     1  C   -1.347286
     2  C    0.116687
     3  C    0.345478
     4  C   -1.240450
     5  C   -0.031901
     6  C    0.563491
     7  N   -0.412570
     8  C    0.245258
     9  N   -0.484259
    10  O   -0.581078
    11  C   -0.247625
    12  C   -0.308928
    13  C   -0.729261
    14  H    0.388231
    15  H    0.174038
    16  H    0.251050
    17  H    0.219068
    18  H    0.190807
    19  H    0.206949
    20  H    0.190677
    21  H    0.199907
    22  H    0.225063
    23  H    0.225426
    24  C    1.521621
    25  F   -0.329367
    26  F   -0.322640
    27  F   -0.282725
    28  Cl   0.151944
    29  Cl   0.102396
 Sum of Mulliken charges =  -1.00000

 Dipole moment (field-independent basis, Debye):
    X=             -0.2505    Y=              0.3733    Z=             -1.4060  Tot=              1.4762
 Quadrupole moment (field-independent basis, Debye-Ang):
   XX=           -165.4883   YY=           -137.8819   ZZ=           -136.0809
   XY=             -2.2298   XZ=              2.7831   YZ=              1.6404

  Exact polarizability: 270.849   1.745 185.253   2.339  -0.445 124.090
 Approx polarizability: 272.806  -1.557 234.792   7.977  -4.963 164.212

                      1                      2                      3
                      A                      A                      A
 Frequencies --     11.6171                17.9741                25.5083
 Red. masses --     17.7657                 4.4076                 7.3290
 Frc consts  --      0.0014                 0.0008                 0.0028
 IR Inten    --      0.0082                 1.2927                 0.8081

                      4                      5                      6
                      A                      A                      A
 Frequencies --     50.9193                76.0625                81.1013
 Red. masses --      2.2164                 4.3684                 3.6999
 Frc consts  --      0.0034                 0.0149                 0.0143
 IR Inten    --      3.5546                 2.9392                 1.4389

                      7                      8                      9
                      A                      A                      A
 Frequencies --     97.0170               121.6097               134.4330
 Red. masses --     10.7469                10.9193                 9.5291
 Frc consts  --      0.0596                 0.0951                 0.1015
 IR Inten    --      1.0035                 1.6863                 0.6765

                     10                     11                     12
                      A                      A                      A
 Frequencies --    148.9319               185.4959               206.6655
 Red. masses --      5.9973                 7.6859                 5.5428
 Frc consts  --      0.0784                 0.1558                 0.1395
 IR Inten    --      4.2944                 0.4241                 0.5822

                     13                     14                     15
                      A                      A                      A
 Frequencies --    217.7660               230.1040               240.5318
 Red. masses --      4.8629                 3.5515                 1.2359
 Frc consts  --      0.1359                 0.1108                 0.0421
 IR Inten    --      0.5572                 0.8779                 0.0921

                     16                     17                     18
                      A                      A                      A
 Frequencies --    271.3929               300.6613               335.8372
 Red. masses --     10.6954                10.4932                 8.2026
 Frc consts  --      0.4641                 0.5589                 0.5451
 IR Inten    --      6.7662                12.6274                 2.2666

                     19                     20                     21
                      A                      A                      A
 Frequencies --    338.3596               341.5204               391.2494
 Red. masses --      5.7980                11.6914                 7.2326
 Frc consts  --      0.3911                 0.8034                 0.6523
 IR Inten    --     16.4948                 0.1468                 0.1337

                     22                     23                     24
                      A                      A                      A
 Frequencies --    413.2054               464.6753               506.3779
 Red. masses --      7.7959                 9.3782                 4.8594
 Frc consts  --      0.7842                 1.1931                 0.7341
 IR Inten    --      2.9929                 5.8315                 5.9735

                     25                     26                     27
                      A                      A                      A
 Frequencies --    518.2719               527.9905               549.4952
 Red. masses --      3.5301                 7.3240                 8.9601
 Frc consts  --      0.5587                 1.2030                 1.5940
 IR Inten    --     15.9549                 0.7343                13.0781

                     28                     29                     30
                      A                      A                      A
 Frequencies --    611.1562               621.0517               650.5976
 Red. masses --      7.1520                 1.8459                 5.3631
 Frc consts  --      1.5739                 0.4195                 1.3375
 IR Inten    --      5.7019                83.3446                14.0401

                     31                     32                     33
                      A                      A                      A
 Frequencies --    690.5447               716.1975               752.9131
 Red. masses --     10.6481                 4.3036                 1.2887
 Frc consts  --      2.9916                 1.3006                 0.4304
 IR Inten    --     48.0542                17.2040                24.2735

                     34                     35                     36
                      A                      A                      A
 Frequencies --    765.0072               786.4122               798.9642
 Red. masses --      4.3379                 5.2138                 9.7057
 Frc consts  --      1.4958                 1.8998                 3.6503
 IR Inten    --    154.0889                 8.4089                25.7647

                     37                     38                     39
                      A                      A                      A
 Frequencies --    830.1000               890.2632               899.7743
 Red. masses --      8.6875                 1.2936                 2.6486
 Frc consts  --      3.5270                 0.6041                 1.2634
 IR Inten    --     76.0381                12.0524                56.0412

                     40                     41                     42
                      A                      A                      A
 Frequencies --    900.5087               906.9727               924.9230
 Red. masses --      1.7256                 1.4932                 1.7937
 Frc consts  --      0.8244                 0.7237                 0.9041
 IR Inten    --     16.9221                17.9201                 0.2749

                     43                     44                     45
                      A                      A                      A
 Frequencies --   1012.0424              1070.7021              1102.6681
 Red. masses --      4.0727                 2.6493                 2.8215
 Frc consts  --      2.4577                 1.7894                 2.0212
 IR Inten    --    127.0689                 6.5250                 6.9251

                     46                     47                     48
                      A                      A                      A
 Frequencies --   1134.3284              1145.6846              1161.9887
 Red. masses --      4.5862                 2.1321                 5.7495
 Frc consts  --      3.4768                 1.6489                 4.5739
 IR Inten    --    134.8856                22.8546               245.4114

                     49                     50                     51
                      A                      A                      A
 Frequencies --   1163.6591              1195.1354              1199.3611
 Red. masses --      2.0034                 8.4188                 2.9774
 Frc consts  --      1.5983                 7.0849                 2.5234
 IR Inten    --     24.2303               102.1187                37.9990

                     52                     53                     54
                      A                      A                      A
 Frequencies --   1230.1820              1254.4094              1277.5889
 Red. masses --      1.8170                 1.8384                 1.5282
 Frc consts  --      1.6201                 1.7044                 1.4697
 IR Inten    --     73.3290               404.8961               579.0740

                     55                     56                     57
                      A                      A                      A
 Frequencies --   1315.5716              1324.2728              1335.4742
 Red. masses --      1.2448                 3.7198                 1.4672
 Frc consts  --      1.2694                 3.8435                 1.5417
 IR Inten    --    170.4561                89.7869                78.4881

                     58                     59                     60
                      A                      A                      A
 Frequencies --   1348.2962              1415.2923              1426.3508
 Red. masses --      2.4377                 1.7536                 1.3423
 Frc consts  --      2.6109                 2.0696                 1.6089
 IR Inten    --    225.2324               205.8377                18.6823

                     61                     62                     63
                      A                      A                      A
 Frequencies --   1448.2170              1471.0634              1511.4968
 Red. masses --      3.9057                 4.8759                 1.1401
 Frc consts  --      4.8264                 6.2168                 1.5347
 IR Inten    --    520.2900                76.2540               132.3771

                     64                     65                     66
                      A                      A                      A
 Frequencies --   1513.8800              1523.2918              1523.9681
 Red. masses --      1.6767                 1.0911                 1.0742
 Frc consts  --      2.2641                 1.4917                 1.4699
 IR Inten    --    646.1152                76.4494                 1.6278

                     67                     68                     69
                      A                      A                      A
 Frequencies --   1534.0096              1558.7056              1594.9173
 Red. masses --      1.0870                 9.1742                 8.7748
 Frc consts  --      1.5070                13.1324                13.1512
 IR Inten    --     12.6575               558.2660                 8.8255

                     70                     71                     72
                      A                      A                      A
 Frequencies --   1656.1875              1725.8435              2972.3235
 Red. masses --      6.4442                 8.3100                 1.0736
 Frc consts  --     10.4145                14.5833                 5.5883
 IR Inten    --    169.7744               324.6649               120.3403

                     73                     74                     75
                      A                      A                      A
 Frequencies --   3053.0956              3064.3423              3103.9028
 Red. masses --      1.0666                 1.0355                 1.0953
 Frc consts  --      5.8577                 5.7292                 6.2174
 IR Inten    --     38.0036                50.3540                10.8924

                     76                     77                     78
                      A                      A                      A
 Frequencies --   3132.6615              3135.6797              3142.7768
 Red. masses --      1.0988                 1.1014                 1.0920
 Frc consts  --      6.3533                 6.3805                 6.3546
 IR Inten    --     39.4007                51.8075                31.6340

                     79                     80                     81
                      A                      A                      A
 Frequencies --   3241.7129              3242.0417              3619.1495
 Red. masses --      1.0916                 1.0916                 1.0759
 Frc consts  --      6.7587                 6.7600                 8.3029
 IR Inten    --      2.0315                 1.6886                 9.7738

 - Thermochemistry -
 -------------------
 Temperature   298.150 Kelvin.  Pressure   1.00000 Atm.
 Atom     1 has atomic number  6 and mass  12.00000

 Molecular mass:   313.01223 amu.
 Principal axes and moments of inertia in atomic units:
                           1         2         3
     Eigenvalues --  2816.83160********************
           X            0.99999   0.00422  -0.00346
           Y           -0.00422   0.99999  -0.00170
           Z            0.00345   0.00172   0.99999
 This molecule is an asymmetric top.
 Rotational symmetry number  1.
 Warning -- assumption of classical behavior for rotation
           may cause significant error
 Rotational temperatures (Kelvin)      0.03075     0.00635     0.00553
 Rotational constants (GHZ):           0.64070     0.13237     0.11521
 Zero-point vibrational energy     534924.8 (Joules/Mol)
                                  127.85008 (Kcal/Mol)
 Warning -- explicit consideration of  28 degrees of freedom as
           vibrations may cause significant error
 Vibrational temperatures:     16.71    25.86    36.70    73.26   109.44
          (Kelvin)            116.69   139.59   174.97   193.42   214.28
                              266.89   297.35   313.32   331.07   346.07
                              390.47   432.58   483.19   486.82   491.37
                              562.92   594.51   668.56   728.56   745.68
                              759.66   790.60   879.32   893.55   936.06
                              993.54  1030.45  1083.27  1100.67  1131.47
                             1149.53  1194.33  1280.89  1294.57  1295.63
                             1304.93  1330.76  1456.10  1540.50  1586.49
                             1632.04  1648.38  1671.84  1674.24  1719.53
                             1725.61  1769.96  1804.81  1838.16  1892.81
                             1905.33  1921.45  1939.90  2036.29  2052.20
                             2083.66  2116.53  2174.70  2178.13  2191.67
                             2192.65  2207.09  2242.63  2294.73  2382.88
                             2483.10  4276.51  4392.72  4408.90  4465.82
                             4507.20  4511.54  4521.75  4664.10  4664.57
                             5207.14

 Zero-point correction=                           0.203742 (Hartree/Particle)
 Thermal correction to Energy=                    0.222474
 Thermal correction to Enthalpy=                  0.223418
 Thermal correction to Gibbs Free Energy=         0.152368
 Sum of electronic and zero-point Energies=          -1829.360603
 Sum of electronic and thermal Energies=             -1829.341871
 Sum of electronic and thermal Enthalpies=           -1829.340927
 Sum of electronic and thermal Free Energies=        -1829.411977

                     E (Thermal)             CV                S
                      KCal/Mol        Cal/Mol-Kelvin    Cal/Mol-Kelvin
 Total                  139.604             66.520            149.538
 Electronic               0.000              0.000              0.000
 Translational            0.889              2.981             43.119
 Rotational               0.889              2.981             34.752
 Vibrational            137.827             60.559             71.666
 Vibration     1          0.593              1.987              7.713
 Vibration     2          0.593              1.986              6.846
 Vibration     3          0.593              1.985              6.151
 Vibration     4          0.595              1.977              4.781
 Vibration     5          0.599              1.965              3.990
 Vibration     6          0.600              1.962              3.864
 Vibration     7          0.603              1.951              3.513
 Vibration     8          0.609              1.931              3.075
 Vibration     9          0.613              1.919              2.882
 Vibration    10          0.618              1.904              2.686
 Vibration    11          0.632              1.860              2.272
 Vibration    12          0.641              1.830              2.073
 Vibration    13          0.646              1.814              1.978
 Vibration    14          0.652              1.795              1.878
 Vibration    15          0.658              1.778              1.799
 Vibration    16          0.675              1.726              1.587
 Vibration    17          0.693              1.672              1.413
 Vibration    18          0.717              1.604              1.232
 Vibration    19          0.719              1.599              1.220
 Vibration    20          0.721              1.592              1.205
 Vibration    21          0.759              1.489              0.995
 Vibration    22          0.777              1.442              0.915
 Vibration    23          0.822              1.328              0.753
 Vibration    24          0.862              1.236              0.642
 Vibration    25          0.873              1.210              0.614
 Vibration    26          0.883              1.188              0.592
 Vibration    27          0.905              1.141              0.545
 Vibration    28          0.970              1.008              0.431

 Optimization completed.
    -- Stationary point found.
 Normal termination of Gaussian 09 at Tue Jul 10 18:26:04 2018.
