 Gaussian 09, Revision E.01,

 ----------------------------------------------------------------------
 # M062X/Gen 6D SCF=Tight INT(grid=ultrafine) OPT IOP(2/17=4) SCRF=(SMD
 ,Solvent=h2o) maxdisk=2684354560
 ----------------------------------------------------------------------

 ---------------------------------------------
 4SulfOxyMethyl_C2_EtO.M062X_6-31pGd_opt_water
 ---------------------------------------------
 Symbolic Z-matrix:
 Charge = -1 Multiplicity = 1

 SCF Done:  E(RM062X) =  -1429.61862295     A.U. after   15 cycles
 SCF Done:  E(RM062X) =  -1429.66582459     A.U. after   14 cycles
 SCF Done:  E(RM062X) =  -1429.68864047     A.U. after   14 cycles
 SCF Done:  E(RM062X) =  -1429.69167988     A.U. after   12 cycles
 SCF Done:  E(RM062X) =  -1429.69221990     A.U. after   12 cycles
 SCF Done:  E(RM062X) =  -1429.69235233     A.U. after   15 cycles
 SCF Done:  E(RM062X) =  -1429.69254898     A.U. after   15 cycles
 SCF Done:  E(RM062X) =  -1429.69285544     A.U. after   13 cycles
 SCF Done:  E(RM062X) =  -1429.69317222     A.U. after   13 cycles
 SCF Done:  E(RM062X) =  -1429.69040214     A.U. after   16 cycles
 SCF Done:  E(RM062X) =  -1429.69683360     A.U. after   10 cycles
 SCF Done:  E(RM062X) =  -1429.69683417     A.U. after   10 cycles
 SCF Done:  E(RM062X) =  -1429.69683472     A.U. after   10 cycles
 SCF Done:  E(RM062X) =  -1429.69683515     A.U. after   10 cycles
 SCF Done:  E(RM062X) =  -1429.69683525     A.U. after    9 cycles
 SCF Done:  E(RM062X) =  -1429.69683530     A.U. after    9 cycles
 SCF Done:  E(RM062X) =  -1429.69683534     A.U. after    9 cycles
 SCF Done:  E(RM062X) =  -1429.69683536     A.U. after    7 cycles
 Optimization completed.
    -- Stationary point found.
 Normal termination of Gaussian 09 at Tue Feb 19 13:16:46 2019.
 Gaussian 09:  ES64L-G09RevE.01 30-Nov-2015

 ----------------------------------------------------------------------
 # M062X/Gen 6D SCF=Tight INT(grid=ultrafine) OPT IOP(2/17=4) SCRF=(SMD
 ,Solvent=h2o) Freq=Noraman maxdisk=2684354560 geom=check guess=read IO
 P(2/17=4)
 ----------------------------------------------------------------------

 ---------------------------------------------
 4SulfOxyMethyl_C2_EtO.M062X_6-31pGd_opt_water
 ---------------------------------------------
 Structure from the checkpoint file:  "4SulfOxyMethyl_C2_EtO.M062X_6-31pGd_opt_water.chk"
 Charge = -1 Multiplicity = 1

 SCF Done:  E(RM062X) =  -1429.69683536     A.U. after    1 cycles
 Optimization completed.
    -- Stationary point found.
 Normal termination of Gaussian 09 at Tue Feb 19 13:17:51 2019.

 ----------------------------------------------------------------------
 #N Geom=AllCheck Guess=TCheck SCRF=Check Test GenChk RM062X/ChkBas Fre
 q
 ----------------------------------------------------------------------

 Structure from the checkpoint file:  "4SulfOxyMethyl_C2_EtO.M062X_6-31pGd_opt_water.chk"
 ---------------------------------------------
 4SulfOxyMethyl_C2_EtO.M062X_6-31pGd_opt_water
 ---------------------------------------------
 Charge = -1 Multiplicity = 1

                         Standard orientation:
 ---------------------------------------------------------------------
 Center     Atomic      Atomic             Coordinates (Angstroms)
 Number     Number       Type             X           Y           Z
 ---------------------------------------------------------------------
      1          6           0        6.386827   -2.813002   -0.191161
      2          6           0        5.320204   -1.730241   -0.062575
      3          6           0        3.922102   -2.329525   -0.110438
      4          7           0        2.917357   -1.282237    0.003881
      5          6           0        1.605330   -1.584015   -0.014697
      6          8           0        1.187231   -2.749768   -0.137223
      7          7           0        0.772966   -0.485904    0.104964
      8          6           0       -0.614508   -0.462755    0.109081
      9          6           0       -1.435521   -1.603085    0.181202
     10          6           0       -1.216068    0.812401    0.056695
     11          6           0       -2.592254    0.951141    0.067488
     12          6           0       -3.390344   -0.193371    0.134444
     13          6           0       -2.818577   -1.462042    0.186878
     14          1           0        7.391738   -2.381889   -0.154699
     15          1           0        6.285326   -3.351910   -1.139783
     16          1           0        6.303677   -3.543316    0.621436
     17          1           0        5.428407   -0.997860   -0.872141
     18          1           0        5.449056   -1.186331    0.881351
     19          1           0        3.798388   -3.054712    0.703911
     20          1           0        3.780114   -2.872878   -1.052673
     21          1           0        3.231275   -0.315944    0.168805
     22          1           0        1.232294    0.439006    0.083822
     23          1           0       -0.999722   -2.589710    0.235791
     24          1           0       -0.584729    1.694909    0.009552
     25          1           0       -3.039905    1.939926    0.029770
     26         16           0       -5.146979   -0.027750    0.093480
     27          8           0       -5.508321    1.274599    0.687620
     28          8           0       -5.746453   -1.239156    0.686499
     29          1           0       -3.446822   -2.346154    0.243111
     30          6           0       -5.584679    0.018032   -1.627530
     31          1           0       -5.087058    0.875712   -2.084810
     32          1           0       -6.671702    0.125176   -1.676873
     33          1           0       -5.262954   -0.917508   -2.089440
     34          8           0        3.981579    1.367410    0.463990
     35          8           0        1.946199    2.115189   -0.075472
     36          6           0        3.176457    2.295401    0.152966
     37          6           0        3.751379    3.705262    0.054896
     38          6           0        2.749151    4.788784   -0.316834
     39          1           0        4.569187    3.665246   -0.674690
     40          1           0        4.221746    3.925489    1.020774
     41          1           0        2.294700    4.590495   -1.292406
     42          1           0        3.243075    5.764387   -0.366133
     43          1           0        1.944449    4.854753    0.421931
 ---------------------------------------------------------------------

 SCF Done:  E(RM062X) =  -1429.69683536     A.U. after    1 cycles

 The electronic state is 1-A.
 Alpha  occ. eigenvalues --  -90.15320 -19.65156 -19.65123 -19.61815 -19.60639
 Alpha  occ. eigenvalues --  -19.60241 -14.79043 -14.77240 -10.68583 -10.65030
 Alpha  occ. eigenvalues --  -10.61781 -10.58697 -10.57679 -10.57628 -10.57609
 Alpha  occ. eigenvalues --  -10.57194 -10.56195 -10.55906 -10.53838 -10.53618
 Alpha  occ. eigenvalues --  -10.52774 -10.52592  -8.46743  -6.38934  -6.38841
 Alpha  occ. eigenvalues --   -6.38771  -1.23668  -1.17559  -1.16492  -1.12911
 Alpha  occ. eigenvalues --   -1.06709  -1.05638  -1.02286  -0.97267  -0.89448
 Alpha  occ. eigenvalues --   -0.87595  -0.86164  -0.85714  -0.84728  -0.78149
 Alpha  occ. eigenvalues --   -0.74325  -0.72364  -0.71924  -0.68543  -0.67794
 Alpha  occ. eigenvalues --   -0.66103  -0.62653  -0.62078  -0.60325  -0.58630
 Alpha  occ. eigenvalues --   -0.56995  -0.56264  -0.55338  -0.53853  -0.53146
 Alpha  occ. eigenvalues --   -0.53102  -0.52736  -0.52224  -0.51734  -0.51037
 Alpha  occ. eigenvalues --   -0.50459  -0.49865  -0.49690  -0.49361  -0.47234
 Alpha  occ. eigenvalues --   -0.46589  -0.46313  -0.45987  -0.44604  -0.44224
 Alpha  occ. eigenvalues --   -0.42144  -0.41790  -0.41679  -0.41345  -0.40963
 Alpha  occ. eigenvalues --   -0.39602  -0.39491  -0.39239  -0.38786  -0.38437
 Alpha  occ. eigenvalues --   -0.36954  -0.35320  -0.33808  -0.32786  -0.32505
 Alpha  occ. eigenvalues --   -0.32306  -0.32019  -0.27429
 Alpha virt. eigenvalues --   -0.00889   0.00830   0.01653   0.02721   0.03446
 Alpha virt. eigenvalues --    0.03673   0.03757   0.04392   0.04539   0.04669
 Alpha virt. eigenvalues --    0.05161   0.05721   0.05861   0.06430   0.06948

 Mulliken charges:
               1
     1  C   -0.827768
     2  C   -0.349406
     3  C   -0.198985
     4  N   -0.790636
     5  C    0.864467
     6  O   -0.749122
     7  N   -0.650168
     8  C    0.012127
     9  C   -0.128346
    10  C   -0.342406
    11  C   -0.006376
    12  C   -0.788743
    13  C   -0.447583
    14  H    0.222870
    15  H    0.221130
    16  H    0.221385
    17  H    0.236807
    18  H    0.236694
    19  H    0.237800
    20  H    0.237773
    21  H    0.523705
    22  H    0.526990
    23  H    0.278557
    24  H    0.273536
    25  H    0.278882
    26  S    1.617917
    27  O   -0.610694
    28  O   -0.626766
    29  H    0.277094
    30  C   -0.790432
    31  H    0.311448
    32  H    0.312224
    33  H    0.307951
    34  O   -0.774139
    35  O   -0.791524
    36  C    0.760123
    37  C   -0.499994
    38  C   -0.740385
    39  H    0.244957
    40  H    0.245391
    41  H    0.222636
    42  H    0.218461
    43  H    0.222549
 Sum of Mulliken charges =  -1.00000

 Dipole moment (field-independent basis, Debye):
    X=             -1.6749    Y=              0.2634    Z=             -6.1993  Tot=              6.4270
 Quadrupole moment (field-independent basis, Debye-Ang):
   XX=           -206.6360   YY=           -162.3373   ZZ=           -142.7741
   XY=             -7.1455   XZ=             28.3152   YZ=             -2.2074

  Exact polarizability: 404.153 -15.064 319.111   4.303  -2.810 221.891
 Approx polarizability: 309.481  -5.565 270.554   1.657  -1.973 191.240

                      1                      2                      3
                      A                      A                      A
 Frequencies --     21.0713                25.1252                29.0589
 Red. masses --      4.6197                 4.1448                 4.9803
 Frc consts  --      0.0012                 0.0015                 0.0025
 IR Inten    --      3.3606                 4.5621                 3.4366

                      4                      5                      6
                      A                      A                      A
 Frequencies --     38.3988                41.5217                51.7112
 Red. masses --      4.2022                 2.9227                 3.4573
 Frc consts  --      0.0037                 0.0030                 0.0054
 IR Inten    --      5.0824                 1.0051                 6.4663

                      7                      8                      9
                      A                      A                      A
 Frequencies --     53.0402                61.5267                63.3368
 Red. masses --      3.5514                 4.6360                 3.6990
 Frc consts  --      0.0059                 0.0103                 0.0087
 IR Inten    --      6.2013                 3.9545                 7.3777

                     10                     11                     12
                      A                      A                      A
 Frequencies --     71.1758                81.1690                95.6465
 Red. masses --      3.4638                 4.4704                 4.5461
 Frc consts  --      0.0103                 0.0174                 0.0245
 IR Inten    --      0.4070                10.5729                16.3165

                     13                     14                     15
                      A                      A                      A
 Frequencies --    114.5869               123.0708               159.9802
 Red. masses --      4.2036                 7.2171                 4.6403
 Frc consts  --      0.0325                 0.0644                 0.0700
 IR Inten    --      8.8739                28.1669                15.9228

                     16                     17                     18
                      A                      A                      A
 Frequencies --    166.3539               187.2033               206.7189
 Red. masses --      3.1920                 5.8503                 4.1351
 Frc consts  --      0.0520                 0.1208                 0.1041
 IR Inten    --     17.6995                 1.5828                 0.9353

                     19                     20                     21
                      A                      A                      A
 Frequencies --    226.4361               240.9600               242.5197
 Red. masses --      3.5700                 1.1343                 1.2090
 Frc consts  --      0.1078                 0.0388                 0.0419
 IR Inten    --     10.7208                 0.1402                 2.2262

                     22                     23                     24
                      A                      A                      A
 Frequencies --    246.9610               300.3200               309.6557
 Red. masses --      1.0894                 4.1216                 4.8419
 Frc consts  --      0.0391                 0.2190                 0.2735
 IR Inten    --      1.5374                 9.5830                 1.4638

                     25                     26                     27
                      A                      A                      A
 Frequencies --    329.2016               342.3767               349.6113
 Red. masses --      5.1353                 4.0279                 5.3289
 Frc consts  --      0.3279                 0.2782                 0.3838
 IR Inten    --      7.7469                 4.8972                27.4121

                     28                     29                     30
                      A                      A                      A
 Frequencies --    372.1984               418.4264               433.5261
 Red. masses --      6.9579                 3.0219                 5.1826
 Frc consts  --      0.5679                 0.3117                 0.5739
 IR Inten    --     28.5424                 0.5612                 2.5321

                     31                     32                     33
                      A                      A                      A
 Frequencies --    475.2138               478.3761               518.9572
 Red. masses --      4.9861                 6.2274                 5.6775
 Frc consts  --      0.6634                 0.8396                 0.9009
 IR Inten    --     64.8408                35.2680                28.4888

                     34                     35                     36
                      A                      A                      A
 Frequencies --    530.9917               547.6666               579.5250
 Red. masses --      3.4501                 4.4475                 1.9090
 Frc consts  --      0.5731                 0.7859                 0.3777
 IR Inten    --     98.2222                93.7480                 1.2557

                     37                     38                     39
                      A                      A                      A
 Frequencies --    634.8573               651.7602               662.1643
 Red. masses --      7.0433                 2.7949                 1.4582
 Frc consts  --      1.6726                 0.6995                 0.3767
 IR Inten    --      1.1863               103.2718               135.2790

                     40                     41                     42
                      A                      A                      A
 Frequencies --    693.2109               726.0256               761.0177
 Red. masses --      5.5575                 3.5511                 1.3031
 Frc consts  --      1.5735                 1.1028                 0.4447
 IR Inten    --     44.0954                 6.7147                31.3436

                     43                     44                     45
                      A                      A                      A
 Frequencies --    768.1121               777.6379               786.1431
 Red. masses --      2.4362                 5.0931                 5.0676
 Frc consts  --      0.8469                 1.8146                 1.8453
 IR Inten    --     44.2868                32.2122               139.5976

                     46                     47                     48
                      A                      A                      A
 Frequencies --    816.1231               821.8254               851.8646
 Red. masses --      1.3150                 1.4593                 1.2647
 Frc consts  --      0.5161                 0.5807                 0.5407
 IR Inten    --     87.9986               115.5872                28.9318

                     49                     50                     51
                      A                      A                      A
 Frequencies --    861.8249               873.8242               887.3663
 Red. masses --      1.7266                 4.5530                 3.8335
 Frc consts  --      0.7556                 2.0483                 1.7785
 IR Inten    --     82.5192                22.8789                26.3283

                     52                     53                     54
                      A                      A                      A
 Frequencies --    906.0227               932.5856               989.6996
 Red. masses --      1.1514                 1.6587                 1.3258
 Frc consts  --      0.5569                 0.8499                 0.7652
 IR Inten    --      1.8042                 4.3017                17.5042

                     55                     56                     57
                      A                      A                      A
 Frequencies --    998.8817              1002.4380              1005.6893
 Red. masses --      1.3585                 1.3861                 1.3460
 Frc consts  --      0.7986                 0.8206                 0.8021
 IR Inten    --     36.7034                79.9435                 1.8709

                     58                     59                     60
                      A                      A                      A
 Frequencies --   1021.4583              1027.3129              1050.4768
 Red. masses --      3.3904                 1.6455                 4.3221
 Frc consts  --      2.0842                 1.0232                 2.8101
 IR Inten    --     21.9967                14.3010                20.7364

                     61                     62                     63
                      A                      A                      A
 Frequencies --   1083.8582              1094.9618              1108.2997
 Red. masses --      2.5891                 5.9711                 1.7897
 Frc consts  --      1.7920                 4.2180                 1.2952
 IR Inten    --      7.6537               276.3327                 1.9838

                     64                     65                     66
                      A                      A                      A
 Frequencies --   1112.0759              1139.0092              1144.8691
 Red. masses --      2.3425                 3.1404                 1.5651
 Frc consts  --      1.7069                 2.4004                 1.2087
 IR Inten    --     17.3513               723.2610                25.1112

                     67                     68                     69
                      A                      A                      A
 Frequencies --   1159.2820              1178.1824              1181.3138
 Red. masses --      1.8658                 3.5561                 1.6407
 Frc consts  --      1.4773                 2.9084                 1.3490
 IR Inten    --     29.8681                 2.1646                 0.4694

                     70                     71                     72
                      A                      A                      A
 Frequencies --   1209.3806              1241.0857              1280.3395
 Red. masses --      1.2446                15.2198                 1.1934
 Frc consts  --      1.0725                13.8122                 1.1526
 IR Inten    --      2.6414               565.0095                 0.5542

                     73                     74                     75
                      A                      A                      A
 Frequencies --   1290.3729              1295.9517              1323.2488
 Red. masses --      1.1721                 1.8937                 1.7625
 Frc consts  --      1.1498                 1.8738                 1.8182
 IR Inten    --      1.0554               660.5927                33.2346

                     76                     77                     78
                      A                      A                      A
 Frequencies --   1326.9154              1332.9188              1336.5705
 Red. masses --      1.0735                 1.6556                 1.7332
 Frc consts  --      1.1136                 1.7331                 1.8242
 IR Inten    --      0.2634                21.1151                82.6918

                     79                     80                     81
                      A                      A                      A
 Frequencies --   1357.5754              1372.6386              1377.1909
 Red. masses --      1.8467                 1.4791                 2.7585
 Frc consts  --      2.0053                 1.6420                 3.0825
 IR Inten    --    147.4765               145.3231               330.0339

                     82                     83                     84
                      A                      A                      A
 Frequencies --   1420.9290              1421.5049              1430.7907
 Red. masses --      1.2913                 1.3131                 1.6904
 Frc consts  --      1.5361                 1.5633                 2.0389
 IR Inten    --      3.0496                42.2222                42.0278

                     85                     86                     87
                      A                      A                      A
 Frequencies --   1449.9299              1451.1890              1454.9706
 Red. masses --      1.0624                 1.0448                 1.6548
 Frc consts  --      1.3159                 1.2963                 2.0640
 IR Inten    --     18.3202                 6.6293                71.3353

                     88                     89                     90
                      A                      A                      A
 Frequencies --   1455.3195              1473.5428              1490.5582
 Red. masses --      2.1799                 2.8223                 1.0594
 Frc consts  --      2.7203                 3.6106                 1.3868
 IR Inten    --    154.3052               265.3447                 5.1557

                     91                     92                     93
                      A                      A                      A
 Frequencies --   1501.2012              1502.8905              1508.4255
 Red. masses --      1.0395                 1.0400                 1.1230
 Frc consts  --      1.3802                 1.3840                 1.5055
 IR Inten    --     11.1565                11.4104                82.2298

                     94                     95                     96
                      A                      A                      A
 Frequencies --   1512.5723              1530.9203              1547.8314
 Red. masses --      1.0817                 1.0942                 2.5853
 Frc consts  --      1.4581                 1.5110                 3.6493
 IR Inten    --      2.0593                42.8949               363.7099

                     97                     98                     99
                      A                      A                      A
 Frequencies --   1556.6612              1593.4606              1612.8689
 Red. masses --      6.8712                 3.0611                 1.9479
 Frc consts  --      9.8101                 4.5795                 2.9854
 IR Inten    --    783.5354               757.9907              1632.4992

                    100                    101                    102
                      A                      A                      A
 Frequencies --   1656.4519              1680.9163              1722.1957
 Red. masses --      7.3609                 4.8657                 1.9888
 Frc consts  --     11.8998                 8.1001                 3.4755
 IR Inten    --    241.9024               142.2550               563.9411

                    103                    104                    105
                      A                      A                      A
 Frequencies --   3067.7869              3075.9553              3077.2396
 Red. masses --      1.0585                 1.0437                 1.0522
 Frc consts  --      5.8694                 5.8183                 5.8703
 IR Inten    --     39.6159                13.4896               121.3001

                    106                    107                    108
                      A                      A                      A
 Frequencies --   3084.1697              3085.5244              3099.2509
 Red. masses --      1.0488                 1.0491                 1.1042
 Frc consts  --      5.8778                 5.8846                 6.2491
 IR Inten    --     57.3949                 9.1191                13.2265

                    109                    110                    111
                      A                      A                      A
 Frequencies --   3107.2563              3120.4203              3121.1109
 Red. masses --      1.0296                 1.1061                 1.1016
 Frc consts  --      5.8569                 6.3456                 6.3223
 IR Inten    --      2.9438                53.8780                 8.4707

                    112                    113                    114
                      A                      A                      A
 Frequencies --   3146.2433              3154.6231              3154.8515
 Red. masses --      1.1039                 1.1024                 1.1022
 Frc consts  --      6.4381                 6.4637                 6.4636
 IR Inten    --     95.8283                52.9912                51.3682

                    115                    116                    117
                      A                      A                      A
 Frequencies --   3160.1595              3214.0825              3224.2938
 Red. masses --      1.1036                 1.1072                 1.1086
 Frc consts  --      6.4934                 6.7391                 6.7907
 IR Inten    --     57.0281                 4.5299                 3.8121

                    118                    119                    120
                      A                      A                      A
 Frequencies --   3235.0589              3239.7328              3245.5145
 Red. masses --      1.0897                 1.0887                 1.0921
 Frc consts  --      6.7192                 6.7324                 6.7775
 IR Inten    --     59.6941               935.9630                13.0809

                    121                    122                    123
                      A                      A                      A
 Frequencies --   3246.7244              3307.1337              3314.4673
 Red. masses --      1.0963                 1.0927                 1.0872
 Frc consts  --      6.8088                 7.0410                 7.0370
 IR Inten    --      0.7876                 6.7360              1619.0378

 - Thermochemistry -
 -------------------
 Temperature   298.150 Kelvin.  Pressure   1.00000 Atm.
 Atom     1 has atomic number  6 and mass  12.00000

 Molecular mass:   329.11712 amu.
 Principal axes and moments of inertia in atomic units:
                           1         2         3
     Eigenvalues --  4854.85630********************
           X            0.99997  -0.00548   0.00490
           Y            0.00550   0.99998  -0.00262
           Z           -0.00489   0.00265   0.99998
 This molecule is an asymmetric top.
 Rotational symmetry number  1.
 Warning -- assumption of classical behavior for rotation
           may cause significant error
 Rotational temperatures (Kelvin)      0.01784     0.00488     0.00392
 Rotational constants (GHZ):           0.37174     0.10164     0.08174
 Zero-point vibrational energy     917803.2 (Joules/Mol)
                                  219.36023 (Kcal/Mol)
 Warning -- explicit consideration of  36 degrees of freedom as
           vibrations may cause significant error
 Vibrational temperatures:     30.32    36.15    41.81    55.25    59.74
          (Kelvin)             74.40    76.31    88.52    91.13   102.41
                              116.78   137.61   164.86   177.07   230.18
                              239.35   269.34   297.42   325.79   346.69
                              348.93   355.32   432.09   445.52   473.65
                              492.60   503.01   535.51   602.02   623.75
                              683.73   688.28   746.66   763.98   787.97
                              833.81   913.42   937.74   952.71   997.37
                             1044.59  1094.93  1105.14  1118.85  1131.08
                             1174.22  1182.42  1225.64  1239.97  1257.24
                             1276.72  1303.56  1341.78  1423.96  1437.17
                             1442.28  1446.96  1469.65  1478.07  1511.40
                             1559.43  1575.40  1594.59  1600.03  1638.78
                             1647.21  1667.95  1695.14  1699.64  1740.03
                             1785.64  1842.12  1856.56  1864.58  1903.86
                             1909.13  1917.77  1923.02  1953.25  1974.92
                             1981.47  2044.40  2045.23  2058.59  2086.12
                             2087.93  2093.38  2093.88  2120.10  2144.58
                             2159.89  2162.32  2170.29  2176.25  2202.65
                             2226.98  2239.69  2292.63  2320.56  2383.26
                             2418.46  2477.85  4413.86  4425.61  4427.46
                             4437.43  4439.38  4459.13  4470.64  4489.58
                             4490.58  4526.74  4538.79  4539.12  4546.76
                             4624.34  4639.03  4654.52  4661.25  4669.57
                             4671.31  4758.22  4768.77

 Zero-point correction=                           0.349573 (Hartree/Particle)
 Thermal correction to Energy=                    0.374387
 Thermal correction to Enthalpy=                  0.375331
 Thermal correction to Gibbs Free Energy=         0.290122
 Sum of electronic and zero-point Energies=          -1429.347263
 Sum of electronic and thermal Energies=             -1429.322448
 Sum of electronic and thermal Enthalpies=           -1429.321504
 Sum of electronic and thermal Free Energies=        -1429.406714

                     E (Thermal)             CV                S
                      KCal/Mol        Cal/Mol-Kelvin    Cal/Mol-Kelvin
 Total                  234.931             87.414            179.339
 Electronic               0.000              0.000              0.000
 Translational            0.889              2.981             43.269
 Rotational               0.889              2.981             35.897
 Vibrational            233.154             81.453            100.173
 Vibration     1          0.593              1.985              6.531
 Vibration     2          0.593              1.985              6.181
 Vibration     3          0.593              1.984              5.893
 Vibration     4          0.594              1.982              5.340
 Vibration     5          0.594              1.981              5.185
 Vibration     6          0.596              1.977              4.751
 Vibration     7          0.596              1.976              4.701
 Vibration     8          0.597              1.973              4.408
 Vibration     9          0.597              1.972              4.350
 Vibration    10          0.598              1.968              4.121
 Vibration    11          0.600              1.962              3.862
 Vibration    12          0.603              1.952              3.541
 Vibration    13          0.608              1.937              3.190
 Vibration    14          0.610              1.930              3.052
 Vibration    15          0.622              1.891              2.550
 Vibration    16          0.624              1.884              2.476
 Vibration    17          0.632              1.857              2.255
 Vibration    18          0.641              1.830              2.072
 Vibration    19          0.650              1.801              1.907
 Vibration    20          0.658              1.778              1.796
 Vibration    21          0.659              1.775              1.784
 Vibration    22          0.661              1.768              1.752
 Vibration    23          0.693              1.673              1.415
 Vibration    24          0.699              1.655              1.364
 Vibration    25          0.712              1.617              1.264
 Vibration    26          0.722              1.591              1.201
 Vibration    27          0.727              1.576              1.168
 Vibration    28          0.744              1.529              1.071
 Vibration    29          0.781              1.430              0.897
 Vibration    30          0.794              1.397              0.847
 Vibration    31          0.832              1.305              0.723
 Vibration    32          0.835              1.298              0.714
 Vibration    33          0.874              1.208              0.612
 Vibration    34          0.886              1.181              0.585
 Vibration    35          0.903              1.145              0.549
 Vibration    36          0.936              1.076              0.486

 Normal termination of Gaussian 09 at Tue Feb 19 14:09:27 2019.
