 Gaussian 09, Revision E.01,

 ----------------------------------------------------------------------
 # M062X/Gen 6D SCF=Tight INT(grid=ultrafine) OPT IOP(2/17=4) maxdisk=2
 684354560
 ----------------------------------------------------------------------

 ---------------------------------------
 4SulfOxyMethyl_C2_EtO.M062X_6-31pGd_opt
 ---------------------------------------
 Symbolic Z-matrix:
 Charge = -1 Multiplicity = 1

 SCF Done:  E(RM062X) =  -1429.50217232     A.U. after   17 cycles
 SCF Done:  E(RM062X) =  -1429.55728959     A.U. after   14 cycles
 SCF Done:  E(RM062X) =  -1429.59222642     A.U. after   15 cycles
 SCF Done:  E(RM062X) =  -1429.59732154     A.U. after   13 cycles
 SCF Done:  E(RM062X) =  -1429.59842586     A.U. after   13 cycles
 SCF Done:  E(RM062X) =  -1429.59917193     A.U. after   13 cycles
 SCF Done:  E(RM062X) =  -1429.59896201     A.U. after   16 cycles
 SCF Done:  E(RM062X) =  -1429.60139438     A.U. after   17 cycles
 SCF Done:  E(RM062X) =  -1429.60316968     A.U. after   14 cycles
 SCF Done:  E(RM062X) =  -1429.60582642     A.U. after   15 cycles
 SCF Done:  E(RM062X) =  -1429.60733235     A.U. after   11 cycles
 SCF Done:  E(RM062X) =  -1429.60733273     A.U. after   10 cycles
 SCF Done:  E(RM062X) =  -1429.60733288     A.U. after    9 cycles
 SCF Done:  E(RM062X) =  -1429.60733299     A.U. after    9 cycles
 SCF Done:  E(RM062X) =  -1429.60733302     A.U. after   10 cycles
 SCF Done:  E(RM062X) =  -1429.60733306     A.U. after   10 cycles
 SCF Done:  E(RM062X) =  -1429.60733308     A.U. after    9 cycles
 SCF Done:  E(RM062X) =  -1429.60733309     A.U. after    8 cycles
 Optimization completed.
    -- Stationary point found.
 Normal termination of Gaussian 09 at Tue Feb 19 13:22:52 2019.
 Gaussian 09:  ES64L-G09RevE.01 30-Nov-2015

 ----------------------------------------------------------------------
 # M062X/Gen 6D SCF=Tight INT(grid=ultrafine) OPT IOP(2/17=4) Freq=Nora
 man maxdisk=2684354560 geom=check guess=read IOP(2/17=4)
 ----------------------------------------------------------------------

 ---------------------------------------
 4SulfOxyMethyl_C2_EtO.M062X_6-31pGd_opt
 ---------------------------------------
 Structure from the checkpoint file:  "4SulfOxyMethyl_C2_EtO.M062X_6-31pGd_opt.chk"
 Charge = -1 Multiplicity = 1

 SCF Done:  E(RM062X) =  -1429.60733309     A.U. after    2 cycles
 Optimization completed.
    -- Stationary point found.
 Normal termination of Gaussian 09 at Tue Feb 19 13:24:50 2019.

 ----------------------------------------------------------------------
 #N Geom=AllCheck Guess=TCheck SCRF=Check Test GenChk RM062X/ChkBas Fre
 q
 ----------------------------------------------------------------------

 Structure from the checkpoint file:  "4SulfOxyMethyl_C2_EtO.M062X_6-31pGd_opt.chk"
 ---------------------------------------
 4SulfOxyMethyl_C2_EtO.M062X_6-31pGd_opt
 ---------------------------------------
 Charge = -1 Multiplicity = 1

                         Standard orientation:
 ---------------------------------------------------------------------
 Center     Atomic      Atomic             Coordinates (Angstroms)
 Number     Number       Type             X           Y           Z
 ---------------------------------------------------------------------
      1          6           0        6.464007   -2.689887   -0.077836
      2          6           0        5.355908   -1.655093    0.102840
      3          6           0        3.977309   -2.258404   -0.143824
      4          7           0        2.961877   -1.240535    0.001444
      5          6           0        1.653062   -1.582484    0.024966
      6          8           0        1.254112   -2.748745   -0.015692
      7          7           0        0.812645   -0.475488    0.107642
      8          6           0       -0.560850   -0.468434    0.135496
      9          6           0       -1.372092   -1.624611    0.121055
     10          6           0       -1.181491    0.804060    0.187706
     11          6           0       -2.558642    0.918605    0.206422
     12          6           0       -3.347741   -0.236528    0.179787
     13          6           0       -2.754546   -1.498245    0.138088
     14          1           0        7.451249   -2.254343    0.108119
     15          1           0        6.463061   -3.093339   -1.097402
     16          1           0        6.333390   -3.532782    0.611455
     17          1           0        5.506164   -0.807215   -0.575690
     18          1           0        5.383409   -1.238733    1.117021
     19          1           0        3.778545   -3.071340    0.566147
     20          1           0        3.937967   -2.706983   -1.149529
     21          1           0        3.254509   -0.246631   -0.054422
     22          1           0        1.262106    0.465481    0.119629
     23          1           0       -0.901938   -2.597873    0.097648
     24          1           0       -0.546066    1.686276    0.213024
     25          1           0       -3.032740    1.894896    0.259598
     26         16           0       -5.098897   -0.093036    0.088943
     27          8           0       -5.511971    1.189864    0.668937
     28          8           0       -5.713361   -1.341563    0.554754
     29          1           0       -3.383962   -2.384236    0.137307
     30          6           0       -5.441312    0.013769   -1.670000
     31          1           0       -4.935922    0.893897   -2.070596
     32          1           0       -6.525151    0.107714   -1.770024
     33          1           0       -5.083429   -0.898191   -2.150278
     34          8           0        3.905390    1.401228   -0.176368
     35          8           0        1.795663    2.115482    0.108343
     36          6           0        3.032916    2.297994   -0.052818
     37          6           0        3.538159    3.749016   -0.103128
     38          6           0        2.446109    4.802866    0.032126
     39          1           0        4.086091    3.865884   -1.046307
     40          1           0        4.288019    3.854222    0.690831
     41          1           0        1.708019    4.699272   -0.768604
     42          1           0        2.864767    5.816056   -0.007070
     43          1           0        1.909158    4.682826    0.977406
 ---------------------------------------------------------------------

 SCF Done:  E(RM062X) =  -1429.60733309     A.U. after    1 cycles

 The electronic state is 1-A.
 Alpha  occ. eigenvalues --  -90.05221 -19.54641 -19.54620 -19.49374 -19.47438
 Alpha  occ. eigenvalues --  -19.46911 -14.67088 -14.65151 -10.56321 -10.52068
 Alpha  occ. eigenvalues --  -10.50986 -10.50233 -10.48302 -10.47611 -10.47592
 Alpha  occ. eigenvalues --  -10.47348 -10.45598 -10.45573 -10.45320 -10.44793
 Alpha  occ. eigenvalues --  -10.43184 -10.43137  -8.36577  -6.28749  -6.28688
 Alpha  occ. eigenvalues --   -6.28639  -1.13523  -1.05505  -1.03517  -1.02788
 Alpha  occ. eigenvalues --   -0.94212  -0.93698  -0.90862  -0.86694  -0.79675
 Alpha  occ. eigenvalues --   -0.78478  -0.75840  -0.75242  -0.74916  -0.68622
 Alpha  occ. eigenvalues --   -0.64522  -0.61801  -0.61402  -0.58924  -0.57361
 Alpha  occ. eigenvalues --   -0.55203  -0.51733  -0.51253  -0.49859  -0.47314
 Alpha  occ. eigenvalues --   -0.46514  -0.46010  -0.45237  -0.43553  -0.42915
 Alpha  occ. eigenvalues --   -0.42520  -0.41770  -0.41450  -0.41145  -0.41021
 Alpha  occ. eigenvalues --   -0.40780  -0.40224  -0.39009  -0.38275  -0.37350
 Alpha  occ. eigenvalues --   -0.36686  -0.35997  -0.34594  -0.34343  -0.33865
 Alpha  occ. eigenvalues --   -0.32904  -0.31528  -0.31301  -0.30990  -0.30630
 Alpha  occ. eigenvalues --   -0.30400  -0.29991  -0.29060  -0.28339  -0.27571
 Alpha  occ. eigenvalues --   -0.26453  -0.22882  -0.22173  -0.20374  -0.19846
 Alpha  occ. eigenvalues --   -0.19671  -0.19123  -0.16061
 Alpha virt. eigenvalues --    0.08688   0.09160   0.10069   0.10896   0.11050
 Alpha virt. eigenvalues --    0.11548   0.11977   0.12362   0.12417   0.13045
 Alpha virt. eigenvalues --    0.13100   0.13580   0.14073   0.14449   0.14603

 Mulliken charges:
               1
     1  C   -0.778427
     2  C   -0.329051
     3  C   -0.196942
     4  N   -0.741373
     5  C    0.797445
     6  O   -0.610664
     7  N   -0.665739
     8  C    0.025191
     9  C   -0.318649
    10  C   -0.432256
    11  C    0.122578
    12  C   -0.698405
    13  C   -0.400321
    14  H    0.198017
    15  H    0.200742
    16  H    0.198719
    17  H    0.251151
    18  H    0.223861
    19  H    0.216898
    20  H    0.200407
    21  H    0.519255
    22  H    0.516389
    23  H    0.272578
    24  H    0.279079
    25  H    0.236286
    26  S    1.466302
    27  O   -0.504821
    28  O   -0.521335
    29  H    0.234082
    30  C   -0.719797
    31  H    0.262363
    32  H    0.259306
    33  H    0.259968
    34  O   -0.633746
    35  O   -0.676912
    36  C    0.688139
    37  C   -0.512531
    38  C   -0.713641
    39  H    0.209437
    40  H    0.209996
    41  H    0.215173
    42  H    0.173331
    43  H    0.217917
 Sum of Mulliken charges =  -1.00000

 Dipole moment (field-independent basis, Debye):
    X=             -0.5050    Y=             -0.2085    Z=             -3.4754  Tot=              3.5181
 Quadrupole moment (field-independent basis, Debye-Ang):
   XX=           -221.0637   YY=           -171.4574   ZZ=           -144.2386
   XY=             -7.4048   XZ=             21.9389   YZ=             -0.4163

  Exact polarizability: 330.187 -12.038 227.604   0.720   2.016 150.815
 Approx polarizability: 321.679  -5.710 275.911  -4.412   3.537 193.661

                      1                      2                      3
                      A                      A                      A
 Frequencies --     13.9964                18.7216                20.3590
 Red. masses --      3.8225                 3.9955                 3.1902
 Frc consts  --      0.0004                 0.0008                 0.0008
 IR Inten    --      1.4199                 0.7262                 1.4086

                      4                      5                      6
                      A                      A                      A
 Frequencies --     29.3337                44.8528                48.1530
 Red. masses --      2.3249                 2.7207                 4.9038
 Frc consts  --      0.0012                 0.0032                 0.0067
 IR Inten    --      0.9557                 1.5546                 0.2193

                      7                      8                      9
                      A                      A                      A
 Frequencies --     49.8781                59.0285                62.7586
 Red. masses --      5.5673                 3.9218                 3.6823
 Frc consts  --      0.0082                 0.0081                 0.0085
 IR Inten    --      1.9721                 1.4798                 2.6190

                     10                     11                     12
                      A                      A                      A
 Frequencies --     78.0553                82.8653                92.2722
 Red. masses --      4.6395                 5.3425                 5.8639
 Frc consts  --      0.0167                 0.0216                 0.0294
 IR Inten    --      1.1147                 6.4302                 4.6735

                     13                     14                     15
                      A                      A                      A
 Frequencies --    117.2965               131.5564               165.3803
 Red. masses --      4.9137                 6.4375                 3.3601
 Frc consts  --      0.0398                 0.0656                 0.0541
 IR Inten    --      3.9347                11.1538                 9.8998

                     16                     17                     18
                      A                      A                      A
 Frequencies --    185.9549               190.0420               214.6159
 Red. masses --      4.7260                 5.4187                 2.8005
 Frc consts  --      0.0963                 0.1153                 0.0760
 IR Inten    --     18.3657                 4.9084                 0.9370

                     19                     20                     21
                      A                      A                      A
 Frequencies --    219.0539               220.3482               232.2748
 Red. masses --      1.1780                 1.6434                 2.1726
 Frc consts  --      0.0333                 0.0470                 0.0691
 IR Inten    --      0.7485                 2.3415                 4.0744

                     22                     23                     24
                      A                      A                      A
 Frequencies --    241.6150               301.6725               308.4513
 Red. masses --      1.1944                 4.2933                 4.4103
 Frc consts  --      0.0411                 0.2302                 0.2472
 IR Inten    --      0.5931                12.4519                 2.7218

                     25                     26                     27
                      A                      A                      A
 Frequencies --    329.6928               341.2797               345.9064
 Red. masses --      4.9272                 4.0603                 5.5169
 Frc consts  --      0.3155                 0.2786                 0.3889
 IR Inten    --      5.2725                 2.2712                12.5784

                     28                     29                     30
                      A                      A                      A
 Frequencies --    372.9293               428.3564               436.8400
 Red. masses --      7.2383                 3.1927                 5.1345
 Frc consts  --      0.5931                 0.3452                 0.5773
 IR Inten    --     23.3133                 0.0767                 0.9293

                     31                     32                     33
                      A                      A                      A
 Frequencies --    482.5590               484.7091               519.9113
 Red. masses --      4.7637                 6.1301                 5.6799
 Frc consts  --      0.6536                 0.8486                 0.9046
 IR Inten    --     34.3910                14.2561                17.1989

                     34                     35                     36
                      A                      A                      A
 Frequencies --    537.7355               557.2032               583.0530
 Red. masses --      3.6465                 4.6976                 1.9741
 Frc consts  --      0.6212                 0.8593                 0.3954
 IR Inten    --     42.7313                57.9672                 0.7510

                     37                     38                     39
                      A                      A                      A
 Frequencies --    635.7980               658.1160               692.3983
 Red. masses --      7.0469                 4.6470                 5.8927
 Frc consts  --      1.6784                 1.1858                 1.6645
 IR Inten    --      0.9424                47.5203                12.6616

                     40                     41                     42
                      A                      A                      A
 Frequencies --    731.9136               751.4723               766.9100
 Red. masses --      3.5786                 1.1366                 3.6546
 Frc consts  --      1.1295                 0.3782                 1.2664
 IR Inten    --     16.1111                 4.4877                 8.1750

                     43                     44                     45
                      A                      A                      A
 Frequencies --    776.3850               784.7500               819.2867
 Red. masses --      5.8399                 5.8867                 1.4017
 Frc consts  --      2.0740                 2.1359                 0.5543
 IR Inten    --     85.1641                77.4767                 1.6891

                     46                     47                     48
                      A                      A                      A
 Frequencies --    827.0959               867.2135               871.5268
 Red. masses --      1.3097                 1.2337                 4.9313
 Frc consts  --      0.5279                 0.5467                 2.2069
 IR Inten    --     17.7560                 6.5909                29.8072

                     49                     50                     51
                      A                      A                      A
 Frequencies --    881.1060               890.6490               901.3218
 Red. masses --      1.6254                 3.9415                 1.1683
 Frc consts  --      0.7435                 1.8422                 0.5592
 IR Inten    --     32.9831                26.6073                 4.3060

                     52                     53                     54
                      A                      A                      A
 Frequencies --    928.3460               970.4118               984.0164
 Red. masses --      1.7247                 1.0965                 1.3434
 Frc consts  --      0.8757                 0.6084                 0.7664
 IR Inten    --      4.3618                77.8347                 0.2320

                     55                     56                     57
                      A                      A                      A
 Frequencies --    985.6513              1005.3436              1019.7304
 Red. masses --      1.4192                 1.2874                 1.3193
 Frc consts  --      0.8123                 0.7667                 0.8083
 IR Inten    --    117.3831                 6.3030                 4.7218

                     58                     59                     60
                      A                      A                      A
 Frequencies --   1022.3868              1023.4691              1049.6163
 Red. masses --      1.7153                 3.3578                 3.9530
 Frc consts  --      1.0564                 2.0723                 2.5659
 IR Inten    --      1.2152                29.9567                19.9328

                     61                     62                     63
                      A                      A                      A
 Frequencies --   1082.0711              1107.8383              1109.8611
 Red. masses --      2.7133                 1.7781                 4.0028
 Frc consts  --      1.8718                 1.2858                 2.9051
 IR Inten    --      4.5479                 0.4020                53.0155

                     64                     65                     66
                      A                      A                      A
 Frequencies --   1112.9193              1150.5593              1154.2086
 Red. masses --      2.3784                 1.6867                 3.6988
 Frc consts  --      1.7356                 1.3155                 2.9032
 IR Inten    --      6.5740                21.1314               673.8717

                     67                     68                     69
                      A                      A                      A
 Frequencies --   1160.6306              1181.2990              1195.5883
 Red. masses --      1.6872                 1.7022                 3.8097
 Frc consts  --      1.3391                 1.3996                 3.2085
 IR Inten    --      1.6587                 6.7921                 1.9152

                     70                     71                     72
                      A                      A                      A
 Frequencies --   1218.2248              1273.1026              1286.4287
 Red. masses --      1.2808                 1.1990                 1.1863
 Frc consts  --      1.1199                 1.1450                 1.1567
 IR Inten    --      3.4452                 7.4785                 0.2103

                     73                     74                     75
                      A                      A                      A
 Frequencies --   1306.6057              1316.4329              1325.6588
 Red. masses --      2.0002                 4.4605                 1.3101
 Frc consts  --      2.0119                 4.5544                 1.3565
 IR Inten    --    354.4016               168.2639                44.1155

                     76                     77                     78
                      A                      A                      A
 Frequencies --   1332.5672              1335.5183              1337.7155
 Red. masses --      1.4015                 1.6367                 2.1604
 Frc consts  --      1.4663                 1.7199                 2.2778
 IR Inten    --     38.3228                35.6885                17.8529

                     79                     80                     81
                      A                      A                      A
 Frequencies --   1360.5833              1372.8011              1394.0530
 Red. masses --      1.2383                 2.1142                 3.6359
 Frc consts  --      1.3506                 2.3475                 4.1632
 IR Inten    --     17.2669               260.8193               299.6623

                     82                     83                     84
                      A                      A                      A
 Frequencies --   1422.0135              1424.4873              1435.7728
 Red. masses --      1.3204                 1.3348                 1.6257
 Frc consts  --      1.5731                 1.5958                 1.9745
 IR Inten    --     19.0587                14.1722                 4.2763

                     85                     86                     87
                      A                      A                      A
 Frequencies --   1468.9071              1472.7346              1475.7060
 Red. masses --      3.3413                 3.6697                 1.0583
 Frc consts  --      4.2477                 4.6895                 1.3579
 IR Inten    --      2.0434               367.8488                10.7943

                     88                     89                     90
                      A                      A                      A
 Frequencies --   1476.4549              1491.0089              1511.9078
 Red. masses --      1.0509                 1.2262                 1.0398
 Frc consts  --      1.3497                 1.6061                 1.4004
 IR Inten    --      1.6908                24.1013                 5.1111

                     91                     92                     93
                      A                      A                      A
 Frequencies --   1512.4045              1523.7741              1524.3295
 Red. masses --      1.0685                 1.1004                 1.0435
 Frc consts  --      1.4400                 1.5054                 1.4285
 IR Inten    --      7.7347                55.0928                 9.8018

                     94                     95                     96
                      A                      A                      A
 Frequencies --   1528.4191              1540.7410              1559.9349
 Red. masses --      1.0683                 1.0856                 2.6847
 Frc consts  --      1.4704                 1.5183                 3.8491
 IR Inten    --      1.6054                12.6388               188.6685

                     97                     98                     99
                      A                      A                      A
 Frequencies --   1611.0393              1636.6916              1668.5899
 Red. masses --      3.3991                 2.4461                 5.9372
 Frc consts  --      5.1978                 3.8606                 9.7393
 IR Inten    --    192.3696                54.6594               616.0449

                    100                    101                    102
                      A                      A                      A
 Frequencies --   1689.5685              1718.3161              1793.3041
 Red. masses --      2.3154                 3.4819                 3.1341
 Frc consts  --      3.8943                 6.0572                 5.9384
 IR Inten    --    273.6079               832.0841               395.1734

                    103                    104                    105
                      A                      A                      A
 Frequencies --   3020.9621              3052.9640              3063.5991
 Red. masses --      1.0704                 1.0974                 1.0363
 Frc consts  --      5.7556                 6.0263                 5.7307
 IR Inten    --     83.1474               898.7356                56.1901

                    106                    107                    108
                      A                      A                      A
 Frequencies --   3066.9924              3076.4770              3081.1265
 Red. masses --      1.0450                 1.0583                 1.0831
 Frc consts  --      5.7914                 5.9014                 6.0579
 IR Inten    --     68.3732                 8.9876                37.6342

                    109                    110                    111
                      A                      A                      A
 Frequencies --   3083.7836              3102.9497              3108.4062
 Red. masses --      1.0694                 1.0293                 1.1013
 Frc consts  --      5.9915                 5.8389                 6.2698
 IR Inten    --     47.3472                 2.2446                15.3752

                    112                    113                    114
                      A                      A                      A
 Frequencies --   3114.7958              3138.1098              3138.8122
 Red. masses --      1.1021                 1.1036                 1.0957
 Frc consts  --      6.3001                 6.4033                 6.3603
 IR Inten    --      0.4188                62.6211                42.6229

                    115                    116                    117
                      A                      A                      A
 Frequencies --   3139.3974              3161.6120              3178.9391
 Red. masses --      1.1009                 1.1023                 1.0916
 Frc consts  --      6.3927                 6.4916                 6.4994
 IR Inten    --     42.1994                36.7219              1785.6096

                    118                    119                    120
                      A                      A                      A
 Frequencies --   3207.0887              3217.2519              3220.6506
 Red. masses --      1.1061                 1.1077                 1.0901
 Frc consts  --      6.7032                 6.7552                 6.6621
 IR Inten    --      2.1700                 0.5862                43.0844

                    121                    122                    123
                      A                      A                      A
 Frequencies --   3229.4347              3235.2648              3298.5697
 Red. masses --      1.0907                 1.0948                 1.0920
 Frc consts  --      6.7022                 6.7518                 7.0001
 IR Inten    --      0.7615                 3.9060                 7.9516

 - Thermochemistry -
 -------------------
 Temperature   298.150 Kelvin.  Pressure   1.00000 Atm.
 Atom     1 has atomic number  6 and mass  12.00000

 Molecular mass:   329.11712 amu.
 Principal axes and moments of inertia in atomic units:
                           1         2         3
     Eigenvalues --  4802.11613********************
           X            0.99996  -0.00649   0.00584
           Y            0.00649   0.99998   0.00082
           Z           -0.00584  -0.00078   0.99998
 This molecule is an asymmetric top.
 Rotational symmetry number  1.
 Warning -- assumption of classical behavior for rotation
           may cause significant error
 Rotational temperatures (Kelvin)      0.01804     0.00498     0.00399
 Rotational constants (GHZ):           0.37582     0.10382     0.08321
 Zero-point vibrational energy     920715.3 (Joules/Mol)
                                  220.05625 (Kcal/Mol)
 Warning -- explicit consideration of  36 degrees of freedom as
           vibrations may cause significant error
 Vibrational temperatures:     20.14    26.94    29.29    42.20    64.53
          (Kelvin)             69.28    71.76    84.93    90.30   112.30
                              119.22   132.76   168.76   189.28   237.95
                              267.55   273.43   308.78   315.17   317.03
                              334.19   347.63   434.04   443.79   474.35
                              491.02   497.68   536.56   616.31   628.51
                              694.29   697.39   748.04   773.68   801.69
                              838.88   914.77   946.88   996.21  1053.06
                             1081.20  1103.41  1117.04  1129.08  1178.77
                             1190.00  1247.73  1253.93  1267.71  1281.44
                             1296.80  1335.68  1396.20  1415.78  1418.13
                             1446.46  1467.16  1470.98  1472.54  1510.16
                             1556.86  1593.93  1596.84  1601.24  1655.40
                             1660.65  1669.89  1699.62  1720.18  1752.75
                             1831.71  1850.88  1879.91  1894.05  1907.33
                             1917.26  1921.51  1924.67  1957.57  1975.15
                             2005.73  2045.96  2049.52  2065.75  2113.43
                             2118.93  2123.21  2124.29  2145.23  2175.30
                             2176.01  2192.37  2193.17  2199.05  2216.78
                             2244.40  2317.92  2354.83  2400.73  2430.91
                             2472.27  2580.16  4346.49  4392.53  4407.83
                             4412.71  4426.36  4433.05  4436.87  4464.45
                             4472.30  4481.49  4515.03  4516.04  4516.89
                             4548.85  4573.78  4614.28  4628.90  4633.79
                             4646.43  4654.82  4745.90

 Zero-point correction=                           0.350682 (Hartree/Particle)
 Thermal correction to Energy=                    0.375406
 Thermal correction to Enthalpy=                  0.376351
 Thermal correction to Gibbs Free Energy=         0.290184
 Sum of electronic and zero-point Energies=          -1429.256651
 Sum of electronic and thermal Energies=             -1429.231927
 Sum of electronic and thermal Enthalpies=           -1429.230982
 Sum of electronic and thermal Free Energies=        -1429.317149

                     E (Thermal)             CV                S
                      KCal/Mol        Cal/Mol-Kelvin    Cal/Mol-Kelvin
 Total                  235.571             86.594            181.353
 Electronic               0.000              0.000              0.000
 Translational            0.889              2.981             43.269
 Rotational               0.889              2.981             35.847
 Vibrational            233.794             80.633            102.237
 Vibration     1          0.593              1.986              7.343
 Vibration     2          0.593              1.986              6.765
 Vibration     3          0.593              1.986              6.599
 Vibration     4          0.593              1.984              5.874
 Vibration     5          0.595              1.979              5.032
 Vibration     6          0.595              1.978              4.892
 Vibration     7          0.595              1.978              4.822
 Vibration     8          0.596              1.974              4.489
 Vibration     9          0.597              1.972              4.369
 Vibration    10          0.599              1.964              3.939
 Vibration    11          0.600              1.961              3.822
 Vibration    12          0.602              1.955              3.611
 Vibration    13          0.608              1.935              3.144
 Vibration    14          0.612              1.922              2.923
 Vibration    15          0.624              1.885              2.487
 Vibration    16          0.632              1.859              2.268
 Vibration    17          0.633              1.854              2.227
 Vibration    18          0.645              1.819              2.004
 Vibration    19          0.647              1.812              1.967
 Vibration    20          0.647              1.810              1.956
 Vibration    21          0.653              1.792              1.861
 Vibration    22          0.658              1.777              1.791
 Vibration    23          0.694              1.671              1.408
 Vibration    24          0.698              1.658              1.371
 Vibration    25          0.712              1.616              1.262
 Vibration    26          0.721              1.593              1.206
 Vibration    27          0.724              1.584              1.185
 Vibration    28          0.744              1.528              1.068
 Vibration    29          0.790              1.409              0.864
 Vibration    30          0.797              1.390              0.837
 Vibration    31          0.839              1.289              0.703
 Vibration    32          0.841              1.284              0.697
 Vibration    33          0.875              1.206              0.610
 Vibration    34          0.893              1.167              0.570
 Vibration    35          0.913              1.124              0.529
 Vibration    36          0.940              1.068              0.480

 Normal termination of Gaussian 09 at Tue Feb 19 14:17:53 2019.
