 Gaussian 09, Revision E.01,

 ----------------------------------------------------------------------
 # M062X/Gen 6D SCF=Tight INT(grid=ultrafine) OPT IOP(2/17=4) SCRF=(SMD
 ,Solvent=h2o) maxdisk=2147483648
 ----------------------------------------------------------------------

 --------------------------------------
 4SulfOxyMethyl.M062X_6-31pGd_opt_water
 --------------------------------------
 Symbolic Z-matrix:
 Charge =  0 Multiplicity = 1

 SCF Done:  E(RM062X) =  -1161.78908468     A.U. after   16 cycles
 SCF Done:  E(RM062X) =  -1161.82434696     A.U. after   14 cycles
 SCF Done:  E(RM062X) =  -1161.83480843     A.U. after   15 cycles
 SCF Done:  E(RM062X) =  -1161.83623813     A.U. after   16 cycles
 SCF Done:  E(RM062X) =  -1161.83689761     A.U. after   14 cycles
 SCF Done:  E(RM062X) =  -1161.83783727     A.U. after   16 cycles
 SCF Done:  E(RM062X) =  -1161.83818938     A.U. after   14 cycles
 SCF Done:  E(RM062X) =  -1161.83803248     A.U. after   16 cycles
 SCF Done:  E(RM062X) =  -1161.83828824     A.U. after   13 cycles
 SCF Done:  E(RM062X) =  -1161.83829578     A.U. after   11 cycles
 SCF Done:  E(RM062X) =  -1161.83829645     A.U. after   10 cycles
 SCF Done:  E(RM062X) =  -1161.83836280     A.U. after   14 cycles
 SCF Done:  E(RM062X) =  -1161.83836775     A.U. after   13 cycles
 SCF Done:  E(RM062X) =  -1161.83836862     A.U. after   12 cycles
 SCF Done:  E(RM062X) =  -1161.83836898     A.U. after   10 cycles
 SCF Done:  E(RM062X) =  -1161.83836782     A.U. after   11 cycles
 SCF Done:  E(RM062X) =  -1161.83836818     A.U. after   10 cycles
 SCF Done:  E(RM062X) =  -1161.83836790     A.U. after    9 cycles
 Optimization completed.
    -- Stationary point found.
 Normal termination of Gaussian 09 at Tue Oct 30 11:56:41 2018.
 Gaussian 09:  ES64L-G09RevE.01 30-Nov-2015

 ----------------------------------------------------------------------
 # M062X/Gen 6D SCF=Tight INT(grid=ultrafine) OPT IOP(2/17=4) SCRF=(SMD
 ,Solvent=h2o) Freq=Noraman maxdisk=2147483648 geom=check guess=read IO
 P(2/17=4)
 ----------------------------------------------------------------------

 --------------------------------------
 4SulfOxyMethyl.M062X_6-31pGd_opt_water
 --------------------------------------
 Structure from the checkpoint file:  "4SulfOxyMethyl.M062X_6-31pGd_opt_water.chk"
 Charge =  0 Multiplicity = 1

 SCF Done:  E(RM062X) =  -1161.83836790     A.U. after    2 cycles
 Optimization completed.
    -- Stationary point found.
 Normal termination of Gaussian 09 at Tue Oct 30 11:58:04 2018.

 ----------------------------------------------------------------------
 #N Geom=AllCheck Guess=TCheck SCRF=Check Test GenChk RM062X/ChkBas Fre
 q
 ----------------------------------------------------------------------

 Structure from the checkpoint file:  "4SulfOxyMethyl.M062X_6-31pGd_opt_water.chk"
 --------------------------------------
 4SulfOxyMethyl.M062X_6-31pGd_opt_water
 --------------------------------------
 Charge =  0 Multiplicity = 1

                         Standard orientation:
 ---------------------------------------------------------------------
 Center     Atomic      Atomic             Coordinates (Angstroms)
 Number     Number       Type             X           Y           Z
 ---------------------------------------------------------------------
      1          6           0        7.546384   -0.310237   -0.130015
      2          6           0        6.264145    0.513799   -0.073104
      3          6           0        5.037588   -0.384650   -0.028423
      4          7           0        3.822432    0.420090    0.008584
      5          6           0        2.605916   -0.161234    0.066868
      6          8           0        2.461950   -1.388004    0.168817
      7          7           0        1.544363    0.723781    0.018937
      8          6           0        0.180436    0.443879    0.051254
      9          6           0       -0.361997   -0.852399    0.051036
     10          6           0       -0.684622    1.554629    0.073154
     11          6           0       -2.057793    1.384325    0.097906
     12          6           0       -2.579925    0.089796    0.104840
     13          6           0       -1.741829   -1.021572    0.076425
     14          1           0        8.427655    0.337364   -0.157203
     15          1           0        7.565218   -0.943787   -1.023603
     16          1           0        7.632623   -0.961127    0.747015
     17          1           0        6.200832    1.168297   -0.951317
     18          1           0        6.271190    1.159929    0.813016
     19          1           0        5.070168   -1.023746    0.860677
     20          1           0        5.019225   -1.042147   -0.906563
     21          1           0        3.901155    1.416265   -0.165736
     22          1           0        1.780040    1.711059   -0.017720
     23          1           0        0.282503   -1.718521    0.031694
     24          1           0       -0.266247    2.557397    0.074702
     25          1           0       -2.713648    2.249438    0.120482
     26         16           0       -4.332007   -0.140279    0.096155
     27          8           0       -4.960045    1.052120    0.697335
     28          8           0       -4.634267   -1.451891    0.701020
     29          1           0       -2.157143   -2.025109    0.079935
     30          6           0       -4.797236   -0.204887   -1.616702
     31          1           0       -4.516153    0.740093   -2.085979
     32          1           0       -5.880800   -0.347941   -1.646150
     33          1           0       -4.279567   -1.046590   -2.081182
 ---------------------------------------------------------------------

 SCF Done:  E(RM062X) =  -1161.83836790     A.U. after    1 cycles

 The electronic state is 1-A.
 Alpha  occ. eigenvalues --  -90.15494 -19.65293 -19.65290 -19.62614 -14.80874
 Alpha  occ. eigenvalues --  -14.78914 -10.69704 -10.62393 -10.59045 -10.57952
 Alpha  occ. eigenvalues --  -10.57907 -10.57811 -10.57746 -10.56734 -10.56348
 Alpha  occ. eigenvalues --  -10.54210 -10.52973  -8.46918  -6.39108  -6.39016
 Alpha  occ. eigenvalues --   -6.38947  -1.23848  -1.18661  -1.13091  -1.06878
 Alpha  occ. eigenvalues --   -1.03481  -0.97788  -0.89835  -0.88000  -0.86554
 Alpha  occ. eigenvalues --   -0.85181  -0.78675  -0.74791  -0.72646  -0.69025
 Alpha  occ. eigenvalues --   -0.68592  -0.66685  -0.63606  -0.62536  -0.60485
 Alpha  occ. eigenvalues --   -0.57154  -0.56493  -0.55996  -0.54420  -0.53394
 Alpha  occ. eigenvalues --   -0.52686  -0.52443  -0.51343  -0.50252  -0.49878
 Alpha  occ. eigenvalues --   -0.49850  -0.47680  -0.47098  -0.46628  -0.45066
 Alpha  occ. eigenvalues --   -0.42534  -0.42031  -0.41996  -0.41133  -0.39982
 Alpha  occ. eigenvalues --   -0.39721  -0.38942  -0.38938  -0.37221  -0.35874
 Alpha  occ. eigenvalues --   -0.33142  -0.32617  -0.28324
 Alpha virt. eigenvalues --   -0.01241   0.00516   0.01387   0.02275   0.03541
 Alpha virt. eigenvalues --    0.03757   0.03970   0.04422   0.04798   0.04959
 Alpha virt. eigenvalues --    0.05517   0.05699   0.06915   0.07000   0.07401

 Mulliken charges:
               1
     1  C   -0.748959
     2  C   -0.382648
     3  C   -0.166133
     4  N   -0.670829
     5  C    1.016682
     6  O   -0.754114
     7  N   -0.648345
     8  C    0.049395
     9  C    1.001620
    10  C   -1.590230
    11  C    0.243983
    12  C   -1.150218
    13  C   -0.463371
    14  H    0.223835
    15  H    0.222694
    16  H    0.222225
    17  H    0.233772
    18  H    0.235512
    19  H    0.240256
    20  H    0.236063
    21  H    0.482477
    22  H    0.499573
    23  H    0.282729
    24  H    0.268276
    25  H    0.282594
    26  S    1.601793
    27  O   -0.603924
    28  O   -0.601254
    29  H    0.279555
    30  C   -0.778549
    31  H    0.310515
    32  H    0.313294
    33  H    0.311728
 Sum of Mulliken charges =  -0.00000

 Dipole moment (field-independent basis, Debye):
    X=              9.1025    Y=              7.1050    Z=             -6.5804  Tot=             13.2905
 Quadrupole moment (field-independent basis, Debye-Ang):
   XX=           -115.1845   YY=           -107.5985   ZZ=           -110.3291
   XY=             14.7918   XZ=             25.8243   YZ=              1.4842

  Exact polarizability: 325.322   2.413 244.967  -0.491  -0.788 168.444
 Approx polarizability: 246.592   2.549 218.102  -2.367  -0.968 146.555

                      1                      2                      3
                      A                      A                      A
 Frequencies --      8.5396                22.1464                39.0910
 Red. masses --      2.7472                 5.0763                 4.0975
 Frc consts  --      0.0001                 0.0015                 0.0037
 IR Inten    --      8.5591                 1.0325                 4.2416

                      4                      5                      6
                      A                      A                      A
 Frequencies --     43.6956                58.5111                63.4412
 Red. masses --      2.7998                 4.3581                 3.9295
 Frc consts  --      0.0031                 0.0088                 0.0093
 IR Inten    --     31.6290                 2.7976                 9.7434

                      7                      8                      9
                      A                      A                      A
 Frequencies --     98.0924               132.8718               150.5232
 Red. masses --      4.9328                 5.0816                 2.8182
 Frc consts  --      0.0280                 0.0529                 0.0376
 IR Inten    --      3.9230                 8.2605                15.7496

                     10                     11                     12
                      A                      A                      A
 Frequencies --    184.2832               209.5148               218.4444
 Red. masses --      5.2815                 4.7848                 3.0233
 Frc consts  --      0.1057                 0.1237                 0.0850
 IR Inten    --      2.3275                 2.8004                10.0828

                     13                     14                     15
                      A                      A                      A
 Frequencies --    236.8853               243.3734               306.0944
 Red. masses --      1.2448                 1.1297                 5.1056
 Frc consts  --      0.0412                 0.0394                 0.2818
 IR Inten    --      3.2509                 0.4548                 1.5038

                     16                     17                     18
                      A                      A                      A
 Frequencies --    324.5891               336.7784               348.5101
 Red. masses --      4.6817                 2.0158                 3.3463
 Frc consts  --      0.2906                 0.1347                 0.2395
 IR Inten    --     11.0887                62.9584                39.0027

                     19                     20                     21
                      A                      A                      A
 Frequencies --    351.2449               370.9000               417.4016
 Red. masses --      1.9957                 5.7642                 3.0081
 Frc consts  --      0.1451                 0.4672                 0.3088
 IR Inten    --     29.3695                26.0062                 0.1927

                     22                     23                     24
                      A                      A                      A
 Frequencies --    435.1695               472.8880               476.2293
 Red. masses --      5.1412                 4.5503                 6.6220
 Frc consts  --      0.5736                 0.5995                 0.8848
 IR Inten    --      2.9090                57.0607                28.7956

                     25                     26                     27
                      A                      A                      A
 Frequencies --    531.8983               545.8678               558.1571
 Red. masses --      3.7047                 3.6110                 1.2064
 Frc consts  --      0.6175                 0.6340                 0.2214
 IR Inten    --    112.3921               163.3331               177.7807

                     28                     29                     30
                      A                      A                      A
 Frequencies --    636.6512               695.0096               725.9135
 Red. masses --      7.0399                 6.0985                 3.6217
 Frc consts  --      1.6812                 1.7356                 1.1244
 IR Inten    --      0.7548                26.4306                 9.2524

                     31                     32                     33
                      A                      A                      A
 Frequencies --    757.6837               768.7446               776.1356
 Red. masses --      1.6058                 2.3196                 6.1640
 Frc consts  --      0.5432                 0.8076                 2.1877
 IR Inten    --     22.3412                 3.7651               118.8980

                     34                     35                     36
                      A                      A                      A
 Frequencies --    791.4035               854.5017               863.7482
 Red. masses --      6.3752                 1.2542                 1.7973
 Frc consts  --      2.3525                 0.5396                 0.7900
 IR Inten    --     62.2604                 0.8395                96.5898

                     37                     38                     39
                      A                      A                      A
 Frequencies --    874.1958               908.5703               934.0619
 Red. masses --      4.3472                 1.1530                 1.6680
 Frc consts  --      1.9574                 0.5608                 0.8574
 IR Inten    --      9.9795                 3.3044                 5.7180

                     40                     41                     42
                      A                      A                      A
 Frequencies --    994.0030               999.1907              1003.4538
 Red. masses --      1.3456                 1.3456                 1.3763
 Frc consts  --      0.7833                 0.7915                 0.8165
 IR Inten    --     42.4360                18.0587                70.8635

                     43                     44                     45
                      A                      A                      A
 Frequencies --   1010.7820              1024.8097              1051.1720
 Red. masses --      1.3454                 3.4634                 4.2363
 Frc consts  --      0.8099                 2.1431                 2.7580
 IR Inten    --      0.0215                15.3903                 9.8948

                     46                     47                     48
                      A                      A                      A
 Frequencies --   1084.3680              1096.5972              1141.7820
 Red. masses --      2.6329                 5.8550                 3.1671
 Frc consts  --      1.8240                 4.1483                 2.4326
 IR Inten    --      8.6730               276.4158               397.2737

                     49                     50                     51
                      A                      A                      A
 Frequencies --   1144.4405              1161.7114              1173.4222
 Red. masses --      1.9343                 1.5761                 3.0094
 Frc consts  --      1.4927                 1.2532                 2.4414
 IR Inten    --    256.3063                31.9451                 0.9235

                     52                     53                     54
                      A                      A                      A
 Frequencies --   1181.9575              1215.7894              1244.3307
 Red. masses --      1.6693                 1.2520                14.8108
 Frc consts  --      1.3740                 1.0904                13.5114
 IR Inten    --      1.5521                12.0706               578.0323

                     55                     56                     57
                      A                      A                      A
 Frequencies --   1269.4347              1284.3100              1309.5714
 Red. masses --      1.5860                 1.2168                 2.4350
 Frc consts  --      1.5058                 1.1825                 2.4604
 IR Inten    --    467.9179                51.9378                21.3758

                     58                     59                     60
                      A                      A                      A
 Frequencies --   1330.7443              1336.2682              1351.3732
 Red. masses --      1.0756                 1.4374                 1.4983
 Frc consts  --      1.1222                 1.5122                 1.6122
 IR Inten    --      1.6923                27.0178                14.1265

                     61                     62                     63
                      A                      A                      A
 Frequencies --   1372.2234              1375.7212              1421.5714
 Red. masses --      2.9367                 1.4593                 1.2746
 Frc consts  --      3.2580                 1.6272                 1.5176
 IR Inten    --    291.9523                82.4632                 5.2540

                     64                     65                     66
                      A                      A                      A
 Frequencies --   1432.4071              1449.3512              1451.0108
 Red. masses --      1.6544                 1.0709                 1.0707
 Frc consts  --      1.9999                 1.3254                 1.3282
 IR Inten    --     14.9667                19.5555                18.3934

                     67                     68                     69
                      A                      A                      A
 Frequencies --   1453.4961              1491.2619              1504.1460
 Red. masses --      2.7901                 1.0578                 1.0394
 Frc consts  --      3.4730                 1.3859                 1.3856
 IR Inten    --     77.4921                13.7215                11.8096

                     70                     71                     72
                      A                      A                      A
 Frequencies --   1511.8521              1531.8784              1547.2611
 Red. masses --      1.0871                 1.0946                 2.2246
 Frc consts  --      1.4639                 1.5134                 3.1379
 IR Inten    --     20.8212                71.9661               925.4151

                     73                     74                     75
                      A                      A                      A
 Frequencies --   1561.2607              1588.0861              1662.8523
 Red. masses --      2.4300                 2.4644                 6.7977
 Frc consts  --      3.4898                 3.6619                11.0743
 IR Inten    --    211.1529               944.0323               225.8025

                     76                     77                     78
                      A                      A                      A
 Frequencies --   1679.9726              1712.0465              3074.1023
 Red. masses --      4.2470                 3.6803                 1.0604
 Frc consts  --      7.0622                 6.3557                 5.9039
 IR Inten    --     36.9979               789.1044                10.0065

                     79                     80                     81
                      A                      A                      A
 Frequencies --   3077.6630              3081.3636              3107.8789
 Red. masses --      1.0374                 1.0598                 1.0296
 Frc consts  --      5.7894                 5.9288                 5.8593
 IR Inten    --     22.3097               104.8915                 3.0918

                     82                     83                     84
                      A                      A                      A
 Frequencies --   3109.4686              3129.5856              3148.0953
 Red. masses --      1.1016                 1.1062                 1.1041
 Frc consts  --      6.2753                 6.3835                 6.4467
 IR Inten    --      3.9812                47.2572                96.8905

                     85                     86                     87
                      A                      A                      A
 Frequencies --   3157.7664              3214.3584              3225.3349
 Red. masses --      1.1022                 1.1071                 1.1088
 Frc consts  --      6.4757                 6.7394                 6.7960
 IR Inten    --     47.1603                 4.5789                 4.0034

                     88                     89                     90
                      A                      A                      A
 Frequencies --   3231.6714              3244.8958              3250.7986
 Red. masses --      1.0910                 1.0922                 1.0951
 Frc consts  --      6.7133                 6.7756                 6.8182
 IR Inten    --      3.1227                 0.5340                 2.2370

                     91                     92                     93
                      A                      A                      A
 Frequencies --   3308.3503              3600.2242              3617.4103
 Red. masses --      1.0931                 1.0787                 1.0796
 Frc consts  --      7.0493                 8.2375                 8.3232
 IR Inten    --      9.9928                49.4289               245.7072

 - Thermochemistry -
 -------------------
 Temperature   298.150 Kelvin.  Pressure   1.00000 Atm.
 Atom     1 has atomic number  6 and mass  12.00000

 Molecular mass:   256.08816 amu.
 Principal axes and moments of inertia in atomic units:
                           1         2         3
     Eigenvalues --   972.21656********************
           X            0.99999   0.00036   0.00535
           Y           -0.00041   0.99996   0.00853
           Z           -0.00534  -0.00853   0.99995
 This molecule is an asymmetric top.
 Rotational symmetry number  1.
 Warning -- assumption of classical behavior for rotation
           may cause significant error
 Rotational temperatures (Kelvin)      0.08909     0.00585     0.00565
 Rotational constants (GHZ):           1.85632     0.12189     0.11783
 Zero-point vibrational energy     708827.1 (Joules/Mol)
                                  169.41375 (Kcal/Mol)
 Warning -- explicit consideration of  27 degrees of freedom as
           vibrations may cause significant error
 Vibrational temperatures:     12.29    31.86    56.24    62.87    84.18
          (Kelvin)             91.28   141.13   191.17   216.57   265.14
                              301.44   314.29   340.82   350.16   440.40
                              467.01   484.55   501.43   505.36   533.64
                              600.55   626.11   680.38   685.19   765.28
                              785.38   803.06   916.00   999.96  1044.43
                             1090.14  1106.05  1116.68  1138.65  1229.44
                             1242.74  1257.77  1307.23  1343.91  1430.15
                             1437.61  1443.74  1454.29  1474.47  1512.40
                             1560.16  1577.76  1642.77  1646.59  1671.44
                             1688.29  1700.57  1749.25  1790.31  1826.43
                             1847.83  1884.18  1914.64  1922.59  1944.32
                             1974.32  1979.35  2045.32  2060.91  2085.29
                             2087.68  2091.25  2145.59  2164.13  2175.22
                             2204.03  2226.16  2246.30  2284.90  2392.47
                             2417.10  2463.25  4422.94  4428.07  4433.39
                             4471.54  4473.83  4502.77  4529.40  4543.32
                             4624.74  4640.53  4649.65  4668.68  4677.17
                             4759.97  5179.91  5204.64

 Zero-point correction=                           0.269978 (Hartree/Particle)
 Thermal correction to Energy=                    0.288084
 Thermal correction to Enthalpy=                  0.289028
 Thermal correction to Gibbs Free Energy=         0.219949
 Sum of electronic and zero-point Energies=          -1161.568390
 Sum of electronic and thermal Energies=             -1161.550284
 Sum of electronic and thermal Enthalpies=           -1161.549340
 Sum of electronic and thermal Free Energies=        -1161.618418

                     E (Thermal)             CV                S
                      KCal/Mol        Cal/Mol-Kelvin    Cal/Mol-Kelvin
 Total                  180.775             65.504            145.387
 Electronic               0.000              0.000              0.000
 Translational            0.889              2.981             42.521
 Rotational               0.889              2.981             33.755
 Vibrational            178.998             59.543             69.111
 Vibration     1          0.593              1.987              8.325
 Vibration     2          0.593              1.985              6.432
 Vibration     3          0.594              1.981              5.305
 Vibration     4          0.595              1.980              5.084
 Vibration     5          0.596              1.974              4.507
 Vibration     6          0.597              1.972              4.347
 Vibration     7          0.604              1.951              3.492
 Vibration     8          0.613              1.920              2.904
 Vibration     9          0.618              1.902              2.666
 Vibration    10          0.631              1.861              2.285
 Vibration    11          0.642              1.826              2.048
 Vibration    12          0.646              1.813              1.972
 Vibration    13          0.656              1.784              1.826
 Vibration    14          0.659              1.774              1.778
 Vibration    15          0.696              1.662              1.383
 Vibration    16          0.709              1.626              1.287
 Vibration    17          0.717              1.602              1.227
 Vibration    18          0.726              1.578              1.173
 Vibration    19          0.728              1.573              1.161
 Vibration    20          0.743              1.532              1.076
 Vibration    21          0.780              1.432              0.901
 Vibration    22          0.796              1.394              0.842
 Vibration    23          0.830              1.310              0.730
 Vibration    24          0.833              1.303              0.720
 Vibration    25          0.887              1.179              0.583
 Vibration    26          0.901              1.149              0.553
 Vibration    27          0.914              1.122              0.528

 Optimization completed on the basis of negligible forces.
    -- Stationary point found.
 Normal termination of Gaussian 09 at Tue Oct 30 12:45:25 2018.
