 Gaussian 09, Revision E.01,

 ----------------------------------------------------------------------
 # M062X/Gen 6D SCF=Tight INT(grid=ultrafine) OPT=CalcFC IOP(2/17=4) SC
 RF=(SMD,Solvent=n-Pentadecane) maxdisk=2147483648
 ----------------------------------------------------------------------

 -----------------------------------------
 3TFM4Chloro.M062X_6-31pGd_opt_Pentadecane
 -----------------------------------------
 Symbolic Z-matrix:
 Charge =  0 Multiplicity = 1

 SCF Done:  E(RM062X) =  -1370.53549837     A.U. after   15 cycles
 SCF Done:  E(RM062X) =  -1370.54898298     A.U. after   14 cycles
 SCF Done:  E(RM062X) =  -1370.54896385     A.U. after   14 cycles
 SCF Done:  E(RM062X) =  -1370.54907983     A.U. after   15 cycles
 SCF Done:  E(RM062X) =  -1370.54884525     A.U. after   15 cycles
 SCF Done:  E(RM062X) =  -1370.54911792     A.U. after   13 cycles
 SCF Done:  E(RM062X) =  -1370.54912705     A.U. after   11 cycles
 SCF Done:  E(RM062X) =  -1370.54910474     A.U. after   11 cycles
 SCF Done:  E(RM062X) =  -1370.54839766     A.U. after   16 cycles
 SCF Done:  E(RM062X) =  -1370.54912959     A.U. after   10 cycles
 SCF Done:  E(RM062X) =  -1370.54924584     A.U. after   13 cycles
 SCF Done:  E(RM062X) =  -1370.42596070     A.U. after   16 cycles
 SCF Done:  E(RM062X) =  -1370.54928670     A.U. after   11 cycles
 SCF Done:  E(RM062X) =  -1370.54925350     A.U. after   13 cycles
 SCF Done:  E(RM062X) =  -1370.54932299     A.U. after   13 cycles
 SCF Done:  E(RM062X) =  -1370.54932676     A.U. after   11 cycles
 SCF Done:  E(RM062X) =  -1370.54932698     A.U. after   10 cycles
 SCF Done:  E(RM062X) =  -1370.54932708     A.U. after    9 cycles
 SCF Done:  E(RM062X) =  -1370.54932707     A.U. after    8 cycles
 Optimization completed.
    -- Stationary point found.
 Normal termination of Gaussian 09 at Wed Feb 27 12:54:31 2019.
 Gaussian 09:  ES64L-G09RevE.01 30-Nov-2015

 ----------------------------------------------------------------------
 # M062X/Gen 6D SCF=Tight INT(grid=ultrafine) SCRF=(SMD,Solvent=n-Penta
 decane) Freq=Noraman maxdisk=2147483648 geom=check guess=read IOP(2/17
 =4)
 ----------------------------------------------------------------------

 -----------------------------------------
 3TFM4Chloro.M062X_6-31pGd_opt_Pentadecane
 -----------------------------------------
 Structure from the checkpoint file:  "3TFM4Chloro.M062X_6-31pGd_opt_Pentadecane.chk"
 Charge =  0 Multiplicity = 1

                         Standard orientation:
 ---------------------------------------------------------------------
 Center     Atomic      Atomic             Coordinates (Angstroms)
 Number     Number       Type             X           Y           Z
 ---------------------------------------------------------------------
      1          6           0        7.251286    0.711776   -0.033583
      2          6           0        6.095825   -0.282456   -0.102812
      3          6           0        4.754134    0.404958    0.114367
      4          7           0        3.670256   -0.566838    0.051024
      5          6           0        2.372790   -0.140404   -0.012963
      6          8           0        2.065934    1.034799   -0.152520
      7          7           0        1.444340   -1.170005    0.067444
      8          6           0        0.050594   -1.067015    0.028625
      9          6           0       -0.639796    0.151578    0.032379
     10          6           0       -0.684118   -2.259513    0.001509
     11          6           0       -2.070571   -2.244087   -0.019056
     12          6           0       -2.754260   -1.033253   -0.014479
     13          6           0       -2.033123    0.161712    0.010919
     14          1           0        8.211370    0.211853   -0.192183
     15          1           0        7.288415    1.207002    0.942933
     16          1           0        7.147089    1.488322   -0.799190
     17          1           0        6.235376   -1.061536    0.659398
     18          1           0        6.085831   -0.784565   -1.077757
     19          1           0        4.576754    1.152840   -0.663379
     20          1           0        4.745902    0.930828    1.079503
     21          1           0        3.860873   -1.487307    0.428870
     22          1           0        1.806127   -2.115967    0.061666
     23          1           0       -0.091768    1.082735    0.047088
     24          1           0       -0.164655   -3.214726   -0.003390
     25          1           0       -2.627490   -3.174976   -0.040129
     26         17           0       -4.495773   -1.058880   -0.040891
     27          6           0       -2.745455    1.491943    0.016662
     28          9           0       -1.887284    2.522704    0.040719
     29          9           0       -3.546324    1.629927    1.088845
     30          9           0       -3.517411    1.655651   -1.072540
 ---------------------------------------------------------------------

 SCF Done:  E(RM062X) =  -1370.54932707     A.U. after    1 cycles

 The electronic state is 1-A.
 Alpha  occ. eigenvalues -- -102.67964 -25.30130 -25.29752 -25.29743 -19.62118
 Alpha  occ. eigenvalues --  -14.81453 -14.79364 -10.81412 -10.69533 -10.63062
 Alpha  occ. eigenvalues --  -10.62487 -10.59739 -10.58420 -10.58139 -10.57964
 Alpha  occ. eigenvalues --  -10.57399 -10.55425 -10.54076  -9.82608  -7.55021
 Alpha  occ. eigenvalues --   -7.54343  -7.54327  -1.46679  -1.37383  -1.37077
 Alpha  occ. eigenvalues --   -1.18799  -1.07252  -1.03952  -1.01109  -0.94695
 Alpha  occ. eigenvalues --   -0.90179  -0.88884  -0.84669  -0.81224  -0.78251
 Alpha  occ. eigenvalues --   -0.74238  -0.72340  -0.69559  -0.69213  -0.68922
 Alpha  occ. eigenvalues --   -0.68199  -0.66315  -0.64027  -0.59738  -0.57486
 Alpha  occ. eigenvalues --   -0.57104  -0.57080  -0.56361  -0.55181  -0.54023
 Alpha  occ. eigenvalues --   -0.53292  -0.52997  -0.52725  -0.51252  -0.50858
 Alpha  occ. eigenvalues --   -0.50716  -0.48894  -0.48773  -0.47512  -0.46219
 Alpha  occ. eigenvalues --   -0.45750  -0.44095  -0.43112  -0.42775  -0.40991
 Alpha  occ. eigenvalues --   -0.40306  -0.38410  -0.37284  -0.35571  -0.33647
 Alpha  occ. eigenvalues --   -0.32867  -0.27894
 Alpha virt. eigenvalues --   -0.01074  -0.00149   0.00299   0.02077   0.02680
 Alpha virt. eigenvalues --    0.03304   0.03480   0.03917   0.04768   0.05051
 Alpha virt. eigenvalues --    0.05730   0.06039   0.06702   0.07143   0.07234

 Mulliken charges:
               1
     1  C   -0.732379
     2  C   -0.341456
     3  C   -0.142766
     4  N   -0.603821
     5  C    0.789754
     6  O   -0.597518
     7  N   -0.671418
     8  C   -0.205638
     9  C    0.329661
    10  C   -0.950646
    11  C   -0.134737
    12  C    0.466796
    13  C   -1.147316
    14  H    0.218213
    15  H    0.218148
    16  H    0.219873
    17  H    0.210420
    18  H    0.229555
    19  H    0.245184
    20  H    0.222149
    21  H    0.412761
    22  H    0.440192
    23  H    0.305979
    24  H    0.226857
    25  H    0.250633
    26  Cl   0.261981
    27  C    1.354107
    28  F   -0.336569
    29  F   -0.269370
    30  F   -0.268629
 Sum of Mulliken charges =  -0.00000

 Dipole moment (field-independent basis, Debye):
    X=              6.7975    Y=             -6.5610    Z=              0.8518  Tot=              9.4857
 Quadrupole moment (field-independent basis, Debye-Ang):
   XX=           -102.3968   YY=           -104.4694   ZZ=           -115.0929
   XY=             -3.9486   XZ=              2.9859   YZ=             -0.7914

  Exact polarizability: 260.307   6.953 175.301   1.948   0.023 111.346
 Approx polarizability: 235.999   1.250 199.456   1.988  -0.843 130.581

                      1                      2                      3
                      A                      A                      A
 Frequencies --     19.7890                28.3309                52.2051
 Red. masses --      5.4092                 3.5847                 8.8184
 Frc consts  --      0.0012                 0.0017                 0.0142
 IR Inten    --      3.0044                 5.1725                 0.8096

                      4                      5                      6
                      A                      A                      A
 Frequencies --     56.6871                62.5351                74.6961
 Red. masses --      4.1117                 3.1936                 3.5143
 Frc consts  --      0.0078                 0.0074                 0.0116
 IR Inten    --      1.8826                 5.8568                 0.9106

                      7                      8                      9
                      A                      A                      A
 Frequencies --    110.1156               123.8775               145.0573
 Red. masses --      5.1159                 6.2456                 7.3838
 Frc consts  --      0.0365                 0.0565                 0.0915
 IR Inten    --      0.1593                 3.7715                 0.1092

                     10                     11                     12
                      A                      A                      A
 Frequencies --    169.5061               191.4693               227.7175
 Red. masses --      9.6383                 3.2507                 6.1199
 Frc consts  --      0.1632                 0.0702                 0.1870
 IR Inten    --      4.2216                 0.8132                 0.6603

                     13                     14                     15
                      A                      A                      A
 Frequencies --    242.5072               252.0430               307.3501
 Red. masses --      1.1374                 5.0091                14.3850
 Frc consts  --      0.0394                 0.1875                 0.8006
 IR Inten    --      0.0299                12.6063                 2.6662

                     16                     17                     18
                      A                      A                      A
 Frequencies --    310.0776               324.8085               345.4331
 Red. masses --      2.7018                 2.1930                 3.8679
 Frc consts  --      0.1531                 0.1363                 0.2719
 IR Inten    --     21.8536                70.7057                 4.2360

                     19                     20                     21
                      A                      A                      A
 Frequencies --    352.3209               378.5278               420.5325
 Red. masses --      4.0601                 8.5399                 4.8573
 Frc consts  --      0.2969                 0.7209                 0.5061
 IR Inten    --      6.6666                 3.9791                10.9256

                     22                     23                     24
                      A                      A                      A
 Frequencies --    457.0909               463.1895               508.2833
 Red. masses --      6.7173                 3.9411                 1.2509
 Frc consts  --      0.8269                 0.4982                 0.1904
 IR Inten    --      3.3116                 4.9192               146.7821

                     25                     26                     27
                      A                      A                      A
 Frequencies --    529.6078               539.6424               596.7941
 Red. masses --      5.3108                 6.8645                 8.6210
 Frc consts  --      0.8776                 1.1778                 1.8091
 IR Inten    --     34.9918                20.5304                 3.6966

                     28                     29                     30
                      A                      A                      A
 Frequencies --    648.1012               671.7971               706.9533
 Red. masses --      4.5049                 8.6611                 7.0124
 Frc consts  --      1.1149                 2.3030                 2.0649
 IR Inten    --      5.2320                27.7597                 9.6993

                     31                     32                     33
                      A                      A                      A
 Frequencies --    741.6541               754.4655               766.8505
 Red. masses --      5.1574                 1.7654                 2.1500
 Frc consts  --      1.6714                 0.5921                 0.7449
 IR Inten    --      0.1996                12.4319                 2.4969

                     34                     35                     36
                      A                      A                      A
 Frequencies --    774.7013               794.7960               843.1992
 Red. masses --      8.9925                 6.1733                 1.4545
 Frc consts  --      3.1798                 2.2976                 0.6093
 IR Inten    --      4.1055                14.7198                46.6968

                     37                     38                     39
                      A                      A                      A
 Frequencies --    901.2480               929.2435               941.3557
 Red. masses --      1.1810                 1.8740                 1.4181
 Frc consts  --      0.5652                 0.9534                 0.7404
 IR Inten    --      2.8774                 1.0713                26.7836

                     40                     41                     42
                      A                      A                      A
 Frequencies --    955.3457               978.3305              1047.6247
 Red. masses --      4.3177                 1.3347                 4.4650
 Frc consts  --      2.3218                 0.7527                 2.8873
 IR Inten    --     25.6729                 2.2510                 0.0573

                     43                     44                     45
                      A                      A                      A
 Frequencies --   1050.1189              1083.2266              1150.4863
 Red. masses --      5.2719                 2.5495                 2.7447
 Frc consts  --      3.4253                 1.7626                 2.1404
 IR Inten    --     31.5130                 5.1277                14.7026

                     46                     47                     48
                      A                      A                      A
 Frequencies --   1154.9181              1165.9986              1181.2881
 Red. masses --      2.3426                 2.4055                 1.8336
 Frc consts  --      1.8410                 1.9268                 1.5075
 IR Inten    --     78.2288                 8.3111                 3.5762

                     49                     50                     51
                      A                      A                      A
 Frequencies --   1192.5008              1203.8943              1232.8228
 Red. masses --      1.6841                12.7578                 3.6544
 Frc consts  --      1.4110                10.8944                 3.2724
 IR Inten    --      5.7250               311.0746               407.4204

                     52                     53                     54
                      A                      A                      A
 Frequencies --   1250.9881              1279.7378              1284.3927
 Red. masses --      1.6945                 1.5050                 1.9383
 Frc consts  --      1.5624                 1.4522                 1.8839
 IR Inten    --    209.3572                69.9755                63.8603

                     55                     56                     57
                      A                      A                      A
 Frequencies --   1305.0317              1318.9810              1327.1313
 Red. masses --      1.9232                 2.2841                 1.2801
 Frc consts  --      1.9298                 2.3412                 1.3283
 IR Inten    --     91.7104               130.6055                72.8248

                     58                     59                     60
                      A                      A                      A
 Frequencies --   1351.0814              1381.8747              1425.7646
 Red. masses --      1.4005                 4.4428                 1.5074
 Frc consts  --      1.5062                 4.9986                 1.8054
 IR Inten    --     29.6470               189.6351                 1.0501

                     61                     62                     63
                      A                      A                      A
 Frequencies --   1437.0692              1480.1582              1508.6492
 Red. masses --      1.3464                 5.3684                 1.0618
 Frc consts  --      1.6383                 6.9297                 1.4238
 IR Inten    --      2.3850               351.7191                 9.8699

                     64                     65                     66
                      A                      A                      A
 Frequencies --   1520.1452              1522.4461              1534.2210
 Red. masses --      1.0443                 1.0712                 1.1683
 Frc consts  --      1.4218                 1.4629                 1.6203
 IR Inten    --     16.2390                 5.1340                47.9932

                     67                     68                     69
                      A                      A                      A
 Frequencies --   1537.1062              1557.4796              1597.6758
 Red. masses --      1.9180                 2.1328                 2.2446
 Frc consts  --      2.6700                 3.0482                 3.3757
 IR Inten    --    435.0478               154.8210               869.1500

                     70                     71                     72
                      A                      A                      A
 Frequencies --   1670.7197              1694.0330              1803.3757
 Red. masses --      5.6357                 6.0937                 7.8459
 Frc consts  --      9.2685                10.3032                15.0338
 IR Inten    --     96.2888                 7.6738               364.4567

                     73                     74                     75
                      A                      A                      A
 Frequencies --   3058.2333              3063.4585              3079.8921
 Red. masses --      1.0688                 1.0649                 1.0365
 Frc consts  --      5.8897                 5.8881                 5.7930
 IR Inten    --     28.8331                43.9135                34.3843

                     76                     77                     78
                      A                      A                      A
 Frequencies --   3107.1973              3142.7807              3151.2157
 Red. masses --      1.0977                 1.0972                 1.1026
 Frc consts  --      6.2443                 6.3850                 6.4507
 IR Inten    --     18.1169                 2.4054                61.5614

                     79                     80                     81
                      A                      A                      A
 Frequencies --   3158.8014              3213.2104              3251.7145
 Red. masses --      1.1020                 1.0911                 1.0944
 Frc consts  --      6.4788                 6.6375                 6.8176
 IR Inten    --     33.4427                 9.1845                 0.2091

                     82                     83                     84
                      A                      A                      A
 Frequencies --   3304.6085              3619.1478              3630.0414
 Red. masses --      1.0917                 1.0780                 1.0777
 Frc consts  --      7.0240                 8.3188                 8.3669
 IR Inten    --     28.6600                 6.8747                92.8949

 - Thermochemistry -
 -------------------
 Temperature   298.150 Kelvin.  Pressure   1.00000 Atm.
 Atom     1 has atomic number  6 and mass  12.00000

 Molecular mass:   280.05903 amu.
 Principal axes and moments of inertia in atomic units:
                           1         2         3
     Eigenvalues --  2049.79936********************
           X            0.99996   0.00927   0.00032
           Y           -0.00927   0.99996  -0.00092
           Z           -0.00033   0.00091   1.00000
 This molecule is an asymmetric top.
 Rotational symmetry number  1.
 Warning -- assumption of classical behavior for rotation
           may cause significant error
 Rotational temperatures (Kelvin)      0.04225     0.00674     0.00595
 Rotational constants (GHZ):           0.88045     0.14040     0.12408
 Zero-point vibrational energy     596514.8 (Joules/Mol)
                                  142.57045 (Kcal/Mol)
 Warning -- explicit consideration of  27 degrees of freedom as
           vibrations may cause significant error
 Vibrational temperatures:     28.47    40.76    75.11    81.56    89.97
          (Kelvin)            107.47   158.43   178.23   208.70   243.88
                              275.48   327.63   348.91   362.63   442.21
                              446.13   467.33   497.00   506.91   544.62
                              605.05   657.65   666.43   731.31   761.99
                              776.42   858.65   932.47   966.56  1017.15
                             1067.07  1085.51  1103.33  1114.62  1143.53
                             1213.17  1296.69  1336.97  1354.40  1374.53
                             1407.60  1507.30  1510.89  1558.52  1655.29
                             1661.67  1677.61  1699.61  1715.74  1732.13
                             1773.75  1799.89  1841.25  1847.95  1877.65
                             1897.72  1909.44  1943.90  1988.21  2051.35
                             2067.62  2129.61  2170.61  2187.15  2190.46
                             2207.40  2211.55  2240.86  2298.70  2403.79
                             2437.33  2594.65  4400.11  4407.63  4431.27
                             4470.56  4521.75  4533.89  4544.80  4623.09
                             4678.49  4754.59  5207.14  5222.81

 Zero-point correction=                           0.227200 (Hartree/Particle)
 Thermal correction to Energy=                    0.245110
 Thermal correction to Enthalpy=                  0.246054
 Thermal correction to Gibbs Free Energy=         0.178392
 Sum of electronic and zero-point Energies=          -1370.322127
 Sum of electronic and thermal Energies=             -1370.304217
 Sum of electronic and thermal Enthalpies=           -1370.303273
 Sum of electronic and thermal Free Energies=        -1370.370935

                     E (Thermal)             CV                S
                      KCal/Mol        Cal/Mol-Kelvin    Cal/Mol-Kelvin
 Total                  153.809             64.429            142.407
 Electronic               0.000              0.000              0.000
 Translational            0.889              2.981             42.788
 Rotational               0.889              2.981             34.304
 Vibrational            152.031             58.467             65.315
 Vibration     1          0.593              1.986              6.655
 Vibration     2          0.593              1.984              5.943
 Vibration     3          0.596              1.977              4.732
 Vibration     4          0.596              1.975              4.569
 Vibration     5          0.597              1.972              4.376
 Vibration     6          0.599              1.966              4.026
 Vibration     7          0.606              1.941              3.267
 Vibration     8          0.610              1.929              3.039
 Vibration     9          0.616              1.908              2.736
 Vibration    10          0.625              1.880              2.441
 Vibration    11          0.634              1.852              2.214
 Vibration    12          0.651              1.799              1.897
 Vibration    13          0.659              1.775              1.784
 Vibration    14          0.664              1.759              1.716
 Vibration    15          0.697              1.660              1.377
 Vibration    16          0.699              1.655              1.362
 Vibration    17          0.709              1.626              1.286
 Vibration    18          0.724              1.585              1.187
 Vibration    19          0.729              1.570              1.156
 Vibration    20          0.749              1.516              1.045
 Vibration    21          0.783              1.426              0.890
 Vibration    22          0.815              1.345              0.775
 Vibration    23          0.821              1.332              0.757
 Vibration    24          0.863              1.232              0.638
 Vibration    25          0.885              1.184              0.588
 Vibration    26          0.895              1.162              0.566
 Vibration    27          0.955              1.039              0.455

 Optimization completed.
    -- Stationary point found.
 Normal termination of Gaussian 09 at Wed Feb 27 13:39:23 2019.
