 Gaussian 09, Revision E.01,

 ----------------------------------------------------------------------
 # M062X/Gen 6D SCF=Tight INT(grid=ultrafine) OPT=CalcFC IOP(2/17=4) SC
 RF=(SMD,Solvent=n-Pentadecane) maxdisk=2684354560
 ----------------------------------------------------------------------

 ---------------------------------------------
 3TFM4Chloro_EtO.M062X_6-31pGd_opt_Pentadecane
 ---------------------------------------------
 Symbolic Z-matrix:
 Charge = -1 Multiplicity = 1

 SCF Done:  E(RM062X) =  -1638.32878919     A.U. after   16 cycles
 SCF Done:  E(RM062X) =  -1638.35198145     A.U. after   13 cycles
 SCF Done:  E(RM062X) =  -1638.37206341     A.U. after   14 cycles
 SCF Done:  E(RM062X) =  -1638.37463248     A.U. after   14 cycles
 SCF Done:  E(RM062X) =  -1638.35519701     A.U. after   14 cycles
 SCF Done:  E(RM062X) =  -1638.37666310     A.U. after   10 cycles
 SCF Done:  E(RM062X) =  -1638.37861716     A.U. after   13 cycles
 SCF Done:  E(RM062X) =  -1638.33265699     A.U. after   14 cycles
 SCF Done:  E(RM062X) =  -1638.37872371     A.U. after    9 cycles
 SCF Done:  E(RM062X) =  -1638.37867565     A.U. after   15 cycles
 SCF Done:  E(RM062X) =  -1638.38030086     A.U. after   11 cycles
 SCF Done:  E(RM062X) =  -1638.38030078     A.U. after   11 cycles
 SCF Done:  E(RM062X) =  -1638.34098191     A.U. after   15 cycles
 SCF Done:  E(RM062X) =  -1638.38030165     A.U. after    8 cycles
 SCF Done:  E(RM062X) =  -1638.38030151     A.U. after   12 cycles
 SCF Done:  E(RM062X) =  -1638.38030619     A.U. after   11 cycles
 SCF Done:  E(RM062X) =  -1638.38030704     A.U. after   11 cycles
 SCF Done:  E(RM062X) =  -1638.38030769     A.U. after   10 cycles
 SCF Done:  E(RM062X) =  -1638.38030775     A.U. after    9 cycles
 Optimization completed.
    -- Stationary point found.
 Normal termination of Gaussian 09 at Wed Feb 27 13:12:09 2019.
 Gaussian 09:  ES64L-G09RevE.01 30-Nov-2015

 ----------------------------------------------------------------------
 # M062X/Gen 6D SCF=Tight INT(grid=ultrafine) SCRF=(SMD,Solvent=n-Penta
 decane) Freq=Noraman maxdisk=2684354560 geom=check guess=read IOP(2/17
 =4)
 ----------------------------------------------------------------------

 ---------------------------------------------
 3TFM4Chloro_EtO.M062X_6-31pGd_opt_Pentadecane
 ---------------------------------------------
 Structure from the checkpoint file:  "3TFM4Chloro_EtO.M062X_6-31pGd_opt_Pentadecane.chk"
 Charge = -1 Multiplicity = 1

                         Standard orientation:
 ---------------------------------------------------------------------
 Center     Atomic      Atomic             Coordinates (Angstroms)
 Number     Number       Type             X           Y           Z
 ---------------------------------------------------------------------
      1          6           0        5.679219   -3.695732   -0.076844
      2          6           0        4.873866   -2.400853   -0.133156
      3          6           0        3.385813   -2.655608    0.076028
      4          7           0        2.655483   -1.406519    0.027197
      5          6           0        1.302898   -1.403450    0.031950
      6          8           0        0.623950   -2.435597    0.044001
      7          7           0        0.761690   -0.126802    0.016124
      8          6           0       -0.576589    0.216497    0.008493
      9          6           0       -1.640738   -0.701972    0.007724
     10          6           0       -0.880295    1.592027   -0.001345
     11          6           0       -2.194138    2.031786   -0.010163
     12          6           0       -3.242738    1.116858   -0.010416
     13          6           0       -2.959766   -0.249471   -0.001673
     14          1           0        6.746685   -3.506383   -0.230414
     15          1           0        5.349798   -4.400402   -0.849654
     16          1           0        5.564555   -4.190590    0.894815
     17          1           0        5.018349   -1.905374   -1.100939
     18          1           0        5.230804   -1.698148    0.629110
     19          1           0        3.223653   -3.159114    1.041034
     20          1           0        3.002967   -3.332552   -0.698405
     21          1           0        3.185637   -0.518034    0.068228
     22          1           0       -1.427034   -1.761360    0.014288
     23          1           0       -0.060892    2.306827   -0.001951
     24          1           0       -2.412863    3.095003   -0.017342
     25         17           0       -4.884143    1.725212   -0.021801
     26          6           0       -4.071151   -1.264219   -0.002628
     27          9           0       -3.613750   -2.526646    0.003561
     28          9           0       -4.867091   -1.153843   -1.086569
     29          9           0       -4.875986   -1.146374    1.073925
     30          1           0        1.419663    0.680019    0.010116
     31          8           0        4.174801    0.980169    0.124830
     32          8           0        2.293189    2.193018   -0.005705
     33          6           0        3.547431    2.067767    0.046307
     34          6           0        4.401202    3.343209    0.007855
     35          6           0        3.610394    4.642629   -0.061643
     36          1           0        5.074660    3.250062   -0.853380
     37          1           0        5.047270    3.324299    0.894170
     38          1           0        2.981690    4.670169   -0.956651
     39          1           0        4.281080    5.510038   -0.085034
     40          1           0        2.947661    4.744422    0.803181
 ---------------------------------------------------------------------

 SCF Done:  E(RM062X) =  -1638.38030775     A.U. after    2 cycles

 The electronic state is 1-A.
 Alpha  occ. eigenvalues -- -102.63425 -25.25981 -25.25644 -25.25643 -19.54463
 Alpha  occ. eigenvalues --  -19.52778 -19.52259 -14.72083 -14.70259 -10.77061
 Alpha  occ. eigenvalues --  -10.61403 -10.57551 -10.57344 -10.55845 -10.54372
 Alpha  occ. eigenvalues --  -10.52407 -10.51971 -10.51381 -10.51151 -10.49323
 Alpha  occ. eigenvalues --  -10.49229 -10.48063 -10.47846  -9.78069  -7.50472
 Alpha  occ. eigenvalues --   -7.49811  -7.49803  -1.42446  -1.33169  -1.32850
 Alpha  occ. eigenvalues --   -1.10578  -1.08836  -0.99380  -0.98901  -0.96358
 Alpha  occ. eigenvalues --   -0.95059  -0.88987  -0.84561  -0.82860  -0.80138
 Alpha  occ. eigenvalues --   -0.78568  -0.76086  -0.72191  -0.68642  -0.66700
 Alpha  occ. eigenvalues --   -0.66496  -0.64727  -0.64376  -0.62955  -0.61719
 Alpha  occ. eigenvalues --   -0.59262  -0.56330  -0.53451  -0.53004  -0.52873
 Alpha  occ. eigenvalues --   -0.52302  -0.50938  -0.49848  -0.49516  -0.48811
 Alpha  occ. eigenvalues --   -0.47999  -0.47461  -0.46773  -0.46734  -0.46098
 Alpha  occ. eigenvalues --   -0.45921  -0.45549  -0.44319  -0.43250  -0.43176
 Alpha  occ. eigenvalues --   -0.42851  -0.41159  -0.40542  -0.40002  -0.39502
 Alpha  occ. eigenvalues --   -0.38796  -0.37815  -0.37228  -0.36879  -0.36042
 Alpha  occ. eigenvalues --   -0.34955  -0.34360  -0.33970  -0.33789  -0.31111
 Alpha  occ. eigenvalues --   -0.28085  -0.27874  -0.25663  -0.25013  -0.24942
 Alpha  occ. eigenvalues --   -0.24445  -0.20685
 Alpha virt. eigenvalues --    0.04641   0.05626   0.06075   0.06761   0.06940
 Alpha virt. eigenvalues --    0.07551   0.07756   0.08366   0.08834   0.08868
 Alpha virt. eigenvalues --    0.09675   0.10006   0.10178   0.10562   0.10685

 Mulliken charges:
               1
     1  C   -0.794200
     2  C   -0.358394
     3  C   -0.100053
     4  N   -0.755889
     5  C    0.704503
     6  O   -0.626243
     7  N   -0.707745
     8  C   -0.286605
     9  C   -0.506418
    10  C    0.143442
    11  C   -0.064212
    12  C    0.462690
    13  C   -1.445081
    14  H    0.207776
    15  H    0.207347
    16  H    0.208500
    17  H    0.230570
    18  H    0.240577
    19  H    0.212430
    20  H    0.219869
    21  H    0.525230
    22  H    0.302354
    23  H    0.283539
    24  H    0.236048
    25  Cl   0.205959
    26  C    1.454641
    27  F   -0.342577
    28  F   -0.276066
    29  F   -0.276002
    30  H    0.514815
    31  O   -0.647851
    32  O   -0.692942
    33  C    0.719876
    34  C   -0.539554
    35  C   -0.714802
    36  H    0.217702
    37  H    0.217213
    38  H    0.217022
    39  H    0.186539
    40  H    0.215996
 Sum of Mulliken charges =  -1.00000

 Dipole moment (field-independent basis, Debye):
    X=             -1.8301    Y=              0.5709    Z=             -0.2037  Tot=              1.9279
 Quadrupole moment (field-independent basis, Debye-Ang):
   XX=           -206.3013   YY=           -165.5957   ZZ=           -148.0264
   XY=            -12.9442   XZ=             -0.9115   YZ=              0.2189

  Exact polarizability: 322.800 -27.189 255.798   1.104  -1.913 148.342
 Approx polarizability: 299.102 -18.826 260.473   1.479  -1.746 175.530

                      1                      2                      3
                      A                      A                      A
 Frequencies --     20.1543                22.7868                27.2738
 Red. masses --      6.4636                 5.2081                 3.6554
 Frc consts  --      0.0015                 0.0016                 0.0016
 IR Inten    --      0.7908                 0.0469                 0.4036

                      4                      5                      6
                      A                      A                      A
 Frequencies --     38.6082                47.5224                52.2602
 Red. masses --      2.8816                 6.5857                 3.1237
 Frc consts  --      0.0025                 0.0088                 0.0050
 IR Inten    --      0.4994                 0.7531                 1.4838

                      7                      8                      9
                      A                      A                      A
 Frequencies --     54.5261                57.5114                70.7318
 Red. masses --      3.5890                 5.0486                 4.1603
 Frc consts  --      0.0063                 0.0098                 0.0123
 IR Inten    --      0.9433                 1.4455                 0.5704

                     10                     11                     12
                      A                      A                      A
 Frequencies --     75.1648                90.4030               107.5565
 Red. masses --      4.3614                 6.0646                 6.8329
 Frc consts  --      0.0145                 0.0292                 0.0466
 IR Inten    --      0.1663                 9.2607                 9.3173

                     13                     14                     15
                      A                      A                      A
 Frequencies --    116.1118               125.7657               146.9214
 Red. masses --      7.7515                 4.7658                 5.0263
 Frc consts  --      0.0616                 0.0444                 0.0639
 IR Inten    --     10.4217                 0.7181                 1.6531

                     16                     17                     18
                      A                      A                      A
 Frequencies --    167.4947               173.8359               188.0614
 Red. masses --     12.4251                 5.4332                 4.7113
 Frc consts  --      0.2054                 0.0967                 0.0982
 IR Inten    --     11.7638                 6.8982                15.0769

                     19                     20                     21
                      A                      A                      A
 Frequencies --    229.5420               231.0016               241.3463
 Red. masses --      1.1077                 6.5426                 1.1268
 Frc consts  --      0.0344                 0.2057                 0.0387
 IR Inten    --      0.5101                 0.5394                 0.0219

                     22                     23                     24
                      A                      A                      A
 Frequencies --    259.5895               303.4122               309.4752
 Red. masses --      5.6268                 5.1915                 8.6713
 Frc consts  --      0.2234                 0.2816                 0.4893
 IR Inten    --      7.1529                 7.7960                16.5904

                     25                     26                     27
                      A                      A                      A
 Frequencies --    318.0829               342.7544               354.5670
 Red. masses --      7.3696                 4.7372                 6.3792
 Frc consts  --      0.4393                 0.3279                 0.4725
 IR Inten    --      0.1395                16.5974                 0.2432

                     28                     29                     30
                      A                      A                      A
 Frequencies --    378.0842               420.4734               455.3315
 Red. masses --      8.8398                 5.5859                 6.9506
 Frc consts  --      0.7445                 0.5819                 0.8490
 IR Inten    --      2.6604                22.1906                 3.7173

                     31                     32                     33
                      A                      A                      A
 Frequencies --    464.6149               519.6019               527.5085
 Red. masses --      3.8564                 5.7106                 6.3484
 Frc consts  --      0.4905                 0.9084                 1.0408
 IR Inten    --      2.7898                21.5057                33.3028

                     34                     35                     36
                      A                      A                      A
 Frequencies --    541.6621               586.4841               595.7940
 Red. masses --      7.7203                 1.9611                 9.0830
 Frc consts  --      1.3346                 0.3974                 1.8996
 IR Inten    --      8.8180                 0.6476                 8.2234

                     37                     38                     39
                      A                      A                      A
 Frequencies --    658.8813               660.5057               669.6036
 Red. masses --      4.6369                 4.7311                 8.7763
 Frc consts  --      1.1860                 1.2161                 2.3185
 IR Inten    --     50.7002                 1.7609                32.7841

                     40                     41                     42
                      A                      A                      A
 Frequencies --    701.4749               739.8778               753.1737
 Red. masses --      7.3822                 4.7409                 1.2689
 Frc consts  --      2.1402                 1.5291                 0.4241
 IR Inten    --     17.2629                 0.1851                18.4083

                     43                     44                     45
                      A                      A                      A
 Frequencies --    763.0740               773.1982               785.0027
 Red. masses --      2.1474                 8.7941                 6.6958
 Frc consts  --      0.7367                 3.0976                 2.4310
 IR Inten    --     39.1457                 3.0191                 4.2413

                     46                     47                     48
                      A                      A                      A
 Frequencies --    804.8230               824.1309               858.1202
 Red. masses --      1.4670                 1.4403                 1.3945
 Frc consts  --      0.5599                 0.5764                 0.6050
 IR Inten    --      6.4136                 9.9392                13.1925

                     49                     50                     51
                      A                      A                      A
 Frequencies --    890.4749               902.0443               924.3738
 Red. masses --      3.9603                 1.1588                 1.8214
 Frc consts  --      1.8502                 0.5555                 0.9170
 IR Inten    --     44.7560                 8.1954                 5.6049

                     52                     53                     54
                      A                      A                      A
 Frequencies --    938.3904               945.1683               955.5464
 Red. masses --      1.4144                 1.0968                 4.4441
 Frc consts  --      0.7338                 0.5773                 2.3908
 IR Inten    --     66.0038                83.2582                 6.2722

                     55                     56                     57
                      A                      A                      A
 Frequencies --   1003.4122              1026.2450              1041.7881
 Red. masses --      1.3078                 1.6554                 5.6640
 Frc consts  --      0.7758                 1.0272                 3.6219
 IR Inten    --      3.4894                 4.4500                20.9434

                     58                     59                     60
                      A                      A                      A
 Frequencies --   1051.3178              1084.8812              1107.6474
 Red. masses --      4.1241                 2.5984                 1.7820
 Frc consts  --      2.6856                 1.8018                 1.2882
 IR Inten    --     26.0028                 8.2884                 0.7149

                     61                     62                     63
                      A                      A                      A
 Frequencies --   1113.0713              1147.3339              1155.8527
 Red. masses --      2.3562                 2.1997                 2.5598
 Frc consts  --      1.7199                 1.7060                 2.0150
 IR Inten    --      6.4633                66.2724                31.1439

                     64                     65                     66
                      A                      A                      A
 Frequencies --   1180.5472              1184.6086              1185.9451
 Red. masses --      1.7063                12.8043                 1.9016
 Frc consts  --      1.4011                10.5866                 1.5758
 IR Inten    --      3.4141               309.9965                28.1987

                     67                     68                     69
                      A                      A                      A
 Frequencies --   1190.9419              1222.8249              1274.6221
 Red. masses --      3.3694                 3.0225                 1.1988
 Frc consts  --      2.8157                 2.6628                 1.1475
 IR Inten    --     17.6420               284.4620                 6.2246

                     70                     71                     72
                      A                      A                      A
 Frequencies --   1283.3994              1288.2050              1302.1944
 Red. masses --      1.9869                 1.1816                 1.9577
 Frc consts  --      1.9282                 1.1553                 1.9559
 IR Inten    --      3.6963                 0.0998               384.8931

                     73                     74                     75
                      A                      A                      A
 Frequencies --   1317.2911              1322.9708              1328.7636
 Red. masses --      3.3384                 1.6196                 1.2135
 Frc consts  --      3.4131                 1.6702                 1.2623
 IR Inten    --    237.9309                88.9825                55.7207

                     76                     77                     78
                      A                      A                      A
 Frequencies --   1337.3313              1370.2827              1401.7510
 Red. masses --      1.6564                 2.0792                 4.3812
 Frc consts  --      1.7454                 2.3002                 5.0721
 IR Inten    --     33.4023               427.9814               188.2209

                     79                     80                     81
                      A                      A                      A
 Frequencies --   1424.1159              1424.7400              1434.3789
 Red. masses --      1.3252                 1.3707                 1.5776
 Frc consts  --      1.5836                 1.6394                 1.9123
 IR Inten    --     15.6623                17.2618                 2.7180

                     82                     83                     84
                      A                      A                      A
 Frequencies --   1473.0782              1481.5869              1487.9973
 Red. masses --      2.7445                 5.2770                 1.4070
 Frc consts  --      3.5088                 6.8248                 1.8354
 IR Inten    --    375.0699               235.7214                64.5334

                     85                     86                     87
                      A                      A                      A
 Frequencies --   1506.6609              1510.6941              1519.7857
 Red. masses --      1.0684                 1.0411                 1.0404
 Frc consts  --      1.4290                 1.3999                 1.4159
 IR Inten    --      9.5320                 7.1436                 8.7080

                     88                     89                     90
                      A                      A                      A
 Frequencies --   1521.8602              1524.5619              1537.7193
 Red. masses --      1.1072                 1.0729                 1.1141
 Frc consts  --      1.5109                 1.4693                 1.5522
 IR Inten    --     67.3628                 3.4055                50.9813

                     91                     92                     93
                      A                      A                      A
 Frequencies --   1543.0885              1620.6302              1640.3859
 Red. masses --      2.7735                 3.0096                 2.4004
 Frc consts  --      3.8910                 4.6573                 3.8057
 IR Inten    --    437.6223                81.4921               105.3607

                     94                     95                     96
                      A                      A                      A
 Frequencies --   1677.1194              1680.5231              1709.6395
 Red. masses --      5.2062                 3.6076                 3.4346
 Frc consts  --      8.6278                 6.0028                 5.9147
 IR Inten    --    286.6959               721.2140               726.4307

                     97                     98                     99
                      A                      A                      A
 Frequencies --   1779.0103              3037.7749              3068.5468
 Red. masses --      2.9431                 1.0669                 1.0366
 Frc consts  --      5.4880                 5.8006                 5.7510
 IR Inten    --    436.5772                83.9677                47.4703

                    100                    101                    102
                      A                      A                      A
 Frequencies --   3072.3686              3076.7145              3079.9028
 Red. masses --      1.0487                 1.0616                 1.0664
 Frc consts  --      5.8327                 5.9211                 5.9601
 IR Inten    --     56.5027               401.2643                19.6810

                    103                    104                    105
                      A                      A                      A
 Frequencies --   3082.5222              3084.9417              3111.3114
 Red. masses --      1.0877                 1.0878                 1.1010
 Frc consts  --      6.0895                 6.0996                 6.2796
 IR Inten    --    111.5928               630.3715                14.5581

                    106                    107                    108
                      A                      A                      A
 Frequencies --   3116.4737              3140.0362              3141.0437
 Red. masses --      1.1033                 1.1037                 1.0978
 Frc consts  --      6.3135                 6.4117                 6.3816
 IR Inten    --      4.9560                76.2901                43.2546

                    109                    110                    111
                      A                      A                      A
 Frequencies --   3143.8581              3161.4868              3207.6434
 Red. masses --      1.1013                 1.1025                 1.0914
 Frc consts  --      6.4136                 6.4927                 6.6160
 IR Inten    --     40.8651                43.9621              1723.4717

                    112                    113                    114
                      A                      A                      A
 Frequencies --   3225.9856              3241.6783              3302.6684
 Red. masses --      1.0909                 1.0951                 1.0907
 Frc consts  --      6.6891                 6.7803                 7.0094
 IR Inten    --     88.2146                 6.4282                25.6217

 - Thermochemistry -
 -------------------
 Temperature   298.150 Kelvin.  Pressure   1.00000 Atm.
 Atom     1 has atomic number  6 and mass  12.00000

 Molecular mass:   353.08798 amu.
 Principal axes and moments of inertia in atomic units:
                           1         2         3
     Eigenvalues --  5867.85822********************
           X            0.99991  -0.01338  -0.00059
           Y            0.01338   0.99991  -0.00009
           Z            0.00059   0.00008   1.00000
 This molecule is an asymmetric top.
 Rotational symmetry number  1.
 Warning -- assumption of classical behavior for rotation
           may cause significant error
 Rotational temperatures (Kelvin)      0.01476     0.00517     0.00390
 Rotational constants (GHZ):           0.30756     0.10779     0.08118
 Zero-point vibrational energy     807034.6 (Joules/Mol)
                                  192.88589 (Kcal/Mol)
 Warning -- explicit consideration of  36 degrees of freedom as
           vibrations may cause significant error
 Vibrational temperatures:     29.00    32.79    39.24    55.55    68.37
          (Kelvin)             75.19    78.45    82.75   101.77   108.15
                              130.07   154.75   167.06   180.95   211.39
                              240.99   250.11   270.58   330.26   332.36
                              347.24   373.49   436.54   445.27   457.65
                              493.15   510.14   543.98   604.97   655.12
                              668.48   747.59   758.97   779.33   843.82
                              857.21   947.98   950.32   963.41  1009.26
                             1064.52  1083.65  1097.89  1112.46  1129.44
                             1157.96  1185.74  1234.64  1281.19  1297.84
                             1329.97  1350.13  1359.88  1374.82  1443.68
                             1476.54  1498.90  1512.61  1560.90  1593.66
                             1601.46  1650.76  1663.01  1698.54  1704.39
                             1706.31  1713.50  1759.37  1833.89  1846.52
                             1853.44  1873.56  1895.29  1903.46  1911.79
                             1924.12  1971.53  2016.80  2048.98  2049.88
                             2063.75  2119.43  2131.67  2140.89  2167.75
                             2173.55  2186.63  2189.61  2193.50  2212.43
                             2220.16  2331.72  2360.15  2413.00  2417.89
                             2459.79  2559.60  4370.68  4414.95  4420.45
                             4426.70  4431.29  4435.06  4438.54  4476.48
                             4483.90  4517.81  4519.26  4523.30  4548.67
                             4615.08  4641.47  4664.05  4751.80

 Zero-point correction=                           0.307383 (Hartree/Particle)
 Thermal correction to Energy=                    0.331941
 Thermal correction to Enthalpy=                  0.332885
 Thermal correction to Gibbs Free Energy=         0.247956
 Sum of electronic and zero-point Energies=          -1638.072925
 Sum of electronic and thermal Energies=             -1638.048367
 Sum of electronic and thermal Enthalpies=           -1638.047422
 Sum of electronic and thermal Free Energies=        -1638.132352

                     E (Thermal)             CV                S
                      KCal/Mol        Cal/Mol-Kelvin    Cal/Mol-Kelvin
 Total                  208.296             85.616            178.750
 Electronic               0.000              0.000              0.000
 Translational            0.889              2.981             43.478
 Rotational               0.889              2.981             36.033
 Vibrational            206.519             79.654             99.238
 Vibration     1          0.593              1.986              6.619
 Vibration     2          0.593              1.985              6.375
 Vibration     3          0.593              1.984              6.018
 Vibration     4          0.594              1.981              5.329
 Vibration     5          0.595              1.979              4.918
 Vibration     6          0.596              1.977              4.730
 Vibration     7          0.596              1.976              4.646
 Vibration     8          0.596              1.975              4.541
 Vibration     9          0.598              1.968              4.133
 Vibration    10          0.599              1.966              4.013
 Vibration    11          0.602              1.956              3.651
 Vibration    12          0.606              1.943              3.313
 Vibration    13          0.608              1.936              3.164
 Vibration    14          0.611              1.927              3.010
 Vibration    15          0.617              1.906              2.712
 Vibration    16          0.624              1.882              2.463
 Vibration    17          0.627              1.875              2.394
 Vibration    18          0.633              1.856              2.247
 Vibration    19          0.652              1.796              1.883
 Vibration    20          0.653              1.794              1.871
 Vibration    21          0.658              1.777              1.793
 Vibration    22          0.668              1.747              1.665
 Vibration    23          0.695              1.667              1.398
 Vibration    24          0.699              1.656              1.365
 Vibration    25          0.704              1.639              1.320
 Vibration    26          0.722              1.590              1.199
 Vibration    27          0.730              1.566              1.146
 Vibration    28          0.748              1.517              1.047
 Vibration    29          0.783              1.426              0.890
 Vibration    30          0.814              1.349              0.780
 Vibration    31          0.822              1.329              0.753
 Vibration    32          0.875              1.207              0.611
 Vibration    33          0.882              1.189              0.593
 Vibration    34          0.897              1.158              0.562
 Vibration    35          0.944              1.061              0.473
 Vibration    36          0.954              1.041              0.457

 Optimization completed.
    -- Stationary point found.
 Normal termination of Gaussian 09 at Wed Feb 27 14:03:13 2019.
