 Gaussian 09, Revision E.01,

 ----------------------------------------------------------------------
 # M062X/Gen 6D SCF=Tight INT(grid=ultrafine) OPT IOP(2/17=4) maxdisk=1
 610612736
 ----------------------------------------------------------------------

 -----------------------------------
 3Methyl4Chloro_a1.M062X_6-31pGd_opt
 -----------------------------------
 Symbolic Z-matrix:
 Charge = -1 Multiplicity = 1

 SCF Done:  E(RM062X) =  -1072.32320339     A.U. after   16 cycles
 SCF Done:  E(RM062X) =  -1072.32652596     A.U. after   16 cycles
 SCF Done:  E(RM062X) =  -1072.32769287     A.U. after   16 cycles
 SCF Done:  E(RM062X) =  -1072.32883441     A.U. after   15 cycles
 SCF Done:  E(RM062X) =  -1072.32877669     A.U. after   16 cycles
 SCF Done:  E(RM062X) =  -1072.32908305     A.U. after   12 cycles
 SCF Done:  E(RM062X) =  -1072.32933973     A.U. after   14 cycles
 SCF Done:  E(RM062X) =  -1072.32940072     A.U. after   12 cycles
 SCF Done:  E(RM062X) =  -1072.32944934     A.U. after   13 cycles
 SCF Done:  E(RM062X) =  -1072.32949368     A.U. after   13 cycles
 SCF Done:  E(RM062X) =  -1072.32954459     A.U. after   14 cycles
 SCF Done:  E(RM062X) =  -1072.32957094     A.U. after   12 cycles
 SCF Done:  E(RM062X) =  -1072.32957727     A.U. after   12 cycles
 SCF Done:  E(RM062X) =  -1072.32957811     A.U. after   10 cycles
 SCF Done:  E(RM062X) =  -1072.32957842     A.U. after   10 cycles
 SCF Done:  E(RM062X) =  -1072.32957851     A.U. after   10 cycles
 SCF Done:  E(RM062X) =  -1072.32957854     A.U. after    9 cycles
 Optimization completed.
    -- Stationary point found.
 Normal termination of Gaussian 09 at Wed Oct 31 12:38:23 2018.
 Gaussian 09:  ES64L-G09RevE.01 30-Nov-2015

 ----------------------------------------------------------------------
 # M062X/Gen 6D SCF=Tight INT(grid=ultrafine) OPT IOP(2/17=4) Freq=Nora
 man maxdisk=1610612736 geom=check guess=read IOP(2/17=4)
 ----------------------------------------------------------------------

 -----------------------------------
 3Methyl4Chloro_a1.M062X_6-31pGd_opt
 -----------------------------------
 Structure from the checkpoint file:  "3Methyl4Chloro_a1.M062X_6-31pGd_opt.chk"
 Charge = -1 Multiplicity = 1

 SCF Done:  E(RM062X) =  -1072.32957854     A.U. after    1 cycles
 Optimization completed.
    -- Stationary point found.
 Normal termination of Gaussian 09 at Wed Oct 31 12:39:00 2018.

 ----------------------------------------------------------------------
 #N Geom=AllCheck Guess=TCheck SCRF=Check Test GenChk RM062X/ChkBas Fre
 q
 ----------------------------------------------------------------------

 Structure from the checkpoint file:  "3Methyl4Chloro_a1.M062X_6-31pGd_opt.chk"
 -----------------------------------
 3Methyl4Chloro_a1.M062X_6-31pGd_opt
 -----------------------------------
 Charge = -1 Multiplicity = 1

                         Standard orientation:
 ---------------------------------------------------------------------
 Center     Atomic      Atomic             Coordinates (Angstroms)
 Number     Number       Type             X           Y           Z
 ---------------------------------------------------------------------
      1          6           0        6.670714    0.482311    0.137194
      2          6           0        5.454468   -0.293457   -0.366047
      3          6           0        4.166569    0.138326    0.332342
      4          7           0        3.025735   -0.607436   -0.140168
      5          6           0        1.731647   -0.032267   -0.043407
      6          8           0        1.644252    1.211406   -0.012298
      7          7           0        0.782572   -0.983228   -0.019544
      8          6           0       -0.546066   -0.660894   -0.008492
      9          6           0       -1.134040    0.634110   -0.037166
     10          6           0       -1.456271   -1.751774    0.031806
     11          6           0       -2.829048   -1.570445    0.043186
     12          6           0       -3.354737   -0.280402    0.012699
     13          6           0       -2.517039    0.835020   -0.028016
     14          1           0        7.590367    0.173082   -0.371852
     15          1           0        6.815819    0.330378    1.213568
     16          1           0        6.539863    1.558193   -0.027916
     17          1           0        5.613115   -1.370181   -0.210448
     18          1           0        5.326178   -0.150343   -1.445542
     19          1           0        3.956712    1.191970    0.125583
     20          1           0        4.303089    0.049344    1.427779
     21          1           0        3.001817   -1.590693    0.103152
     22          1           0       -0.475733    1.493387   -0.065455
     23          1           0       -1.034150   -2.752950    0.052068
     24          1           0       -3.501170   -2.424309    0.073854
     25          6           0       -3.078036    2.234783   -0.060947
     26         17           0       -5.112881   -0.074538    0.027703
     27          1           0       -3.718847    2.387214   -0.937506
     28          1           0       -2.265075    2.964773   -0.093621
     29          1           0       -3.694134    2.438818    0.822866
 ---------------------------------------------------------------------

 SCF Done:  E(RM062X) =  -1072.32957854     A.U. after    1 cycles

 The electronic state is 1-A.
 Alpha  occ. eigenvalues -- -102.54974 -19.44053 -14.61895 -14.55978 -10.49731
 Alpha  occ. eigenvalues --  -10.46820 -10.45073 -10.45040 -10.44292 -10.43938
 Alpha  occ. eigenvalues --  -10.43566 -10.43067 -10.42858 -10.40690 -10.39808
 Alpha  occ. eigenvalues --   -9.69618  -7.41986  -7.41388  -7.41387  -0.98987
 Alpha  occ. eigenvalues --   -0.87193  -0.86365  -0.83652  -0.78442  -0.76874
 Alpha  occ. eigenvalues --   -0.74007  -0.67900  -0.65301  -0.64062  -0.57259
 Alpha  occ. eigenvalues --   -0.55531  -0.52795  -0.48811  -0.45745  -0.42958
 Alpha  occ. eigenvalues --   -0.42128  -0.41937  -0.39660  -0.38546  -0.37676
 Alpha  occ. eigenvalues --   -0.36832  -0.35436  -0.34437  -0.33764  -0.33256
 Alpha  occ. eigenvalues --   -0.32849  -0.31632  -0.31413  -0.30017  -0.29578
 Alpha  occ. eigenvalues --   -0.28634  -0.27478  -0.26657  -0.25018  -0.19905
 Alpha  occ. eigenvalues --   -0.19343  -0.16831  -0.16288  -0.14461  -0.08665
 Alpha virt. eigenvalues --    0.10374   0.11110   0.11954   0.12477   0.13285
 Alpha virt. eigenvalues --    0.13593   0.14330   0.15015   0.15471   0.15760
 Alpha virt. eigenvalues --    0.15950   0.16608   0.16835   0.17109   0.17512

 Mulliken charges:
               1
     1  C   -0.728347
     2  C   -0.232904
     3  C   -0.255083
     4  N   -0.503832
     5  C    0.507973
     6  O   -0.667961
     7  N   -0.521654
     8  C   -0.181308
     9  C    0.051369
    10  C   -0.583872
    11  C   -0.103466
    12  C    0.222582
    13  C   -0.293784
    14  H    0.188141
    15  H    0.198803
    16  H    0.205622
    17  H    0.187053
    18  H    0.216029
    19  H    0.247426
    20  H    0.166771
    21  H    0.386988
    22  H    0.249141
    23  H    0.184429
    24  H    0.186302
    25  C   -0.837270
    26  Cl   0.065572
    27  H    0.217006
    28  H    0.211173
    29  H    0.217100
 Sum of Mulliken charges =  -1.00000

 Dipole moment (field-independent basis, Debye):
    X=              1.4711    Y=             -0.1944    Z=              0.6013  Tot=              1.6011
 Quadrupole moment (field-independent basis, Debye-Ang):
   XX=           -143.8370   YY=           -106.2365   ZZ=           -105.7006
   XY=             -4.6292   XZ=              2.0020   YZ=             -1.3320

  Exact polarizability: 279.079   0.016 161.567   0.600   0.413 108.886
 Approx polarizability: 267.796  -0.469 207.904  -0.324  -0.252 139.095

                      1                      2                      3
                      A                      A                      A
 Frequencies --     21.0322                40.5908                42.9840
 Red. masses --      3.8960                 2.9773                 5.2622
 Frc consts  --      0.0010                 0.0029                 0.0057
 IR Inten    --      1.8861                 0.7143                 4.4336

                      4                      5                      6
                      A                      A                      A
 Frequencies --     74.6379                80.3936               128.6543
 Red. masses --      2.7354                 4.5885                 3.6843
 Frc consts  --      0.0090                 0.0175                 0.0359
 IR Inten    --      2.6329                 0.6561                 5.3524

                      7                      8                      9
                      A                      A                      A
 Frequencies --    151.6895               164.8999               207.3238
 Red. masses --      1.0889                 5.2446                 3.3252
 Frc consts  --      0.0148                 0.0840                 0.0842
 IR Inten    --      0.1763                 3.1623                 1.1595

                     10                     11                     12
                      A                      A                      A
 Frequencies --    216.6969               231.7965               238.5330
 Red. masses --      3.3569                 3.6557                 1.2757
 Frc consts  --      0.0929                 0.1157                 0.0428
 IR Inten    --      0.7777                 0.3808                 0.2760

                     13                     14                     15
                      A                      A                      A
 Frequencies --    255.0749               294.6921               325.6875
 Red. masses --      3.9384                 4.0652                 6.9006
 Frc consts  --      0.1510                 0.2080                 0.4313
 IR Inten    --      2.0653                 2.2868                 3.0057

                     16                     17                     18
                      A                      A                      A
 Frequencies --    356.6035               409.7552               450.5610
 Red. masses --      5.4789                 5.9348                 3.6507
 Frc consts  --      0.4105                 0.5871                 0.4366
 IR Inten    --     17.5700                28.3384                 2.0261

                     19                     20                     21
                      A                      A                      A
 Frequencies --    454.9147               520.3439               557.2437
 Red. masses --      3.1607                 3.7475                 5.1603
 Frc consts  --      0.3854                 0.5978                 0.9441
 IR Inten    --      3.5207                 1.7330                 1.9860

                     22                     23                     24
                      A                      A                      A
 Frequencies --    580.4781               627.2050               681.4307
 Red. masses --      3.4493                 1.9425                 3.8268
 Frc consts  --      0.6848                 0.4502                 1.0470
 IR Inten    --      1.5842               134.6176                14.2183

                     25                     26                     27
                      A                      A                      A
 Frequencies --    698.8158               753.5600               769.0775
 Red. masses --      3.1016                 1.1703                 4.6521
 Frc consts  --      0.8924                 0.3916                 1.6212
 IR Inten    --      8.2915                 8.2943                10.7405

                     28                     29                     30
                      A                      A                      A
 Frequencies --    786.0186               802.2865               832.5281
 Red. masses --      2.8958                10.1040                 1.4958
 Frc consts  --      1.0541                 3.8318                 0.6108
 IR Inten    --     18.3819                25.4357                29.6802

                     31                     32                     33
                      A                      A                      A
 Frequencies --    892.9855               916.3178               920.2200
 Red. masses --      1.2735                 1.4141                 1.6558
 Frc consts  --      0.5983                 0.6996                 0.8261
 IR Inten    --     21.6289                22.6712                 3.5687

                     34                     35                     36
                      A                      A                      A
 Frequencies --    958.2964               970.9966              1009.5286
 Red. masses --      1.2834                 2.9251                 4.0361
 Frc consts  --      0.6944                 1.6249                 2.4235
 IR Inten    --      0.1300                 7.3909               117.5849

                     37                     38                     39
                      A                      A                      A
 Frequencies --   1032.2469              1044.9869              1064.7497
 Red. masses --      1.8791                 3.2874                 1.4800
 Frc consts  --      1.1797                 2.1151                 0.9885
 IR Inten    --      6.8788                11.6345                 1.6944

                     40                     41                     42
                      A                      A                      A
 Frequencies --   1070.0911              1143.2778              1153.5275
 Red. masses --      2.5653                 2.1004                 1.4728
 Frc consts  --      1.7307                 1.6175                 1.1547
 IR Inten    --     15.7120                63.8186                57.5269

                     43                     44                     45
                      A                      A                      A
 Frequencies --   1157.0757              1187.1019              1216.4526
 Red. masses --      1.5532                 2.0199                 2.2147
 Frc consts  --      1.2252                 1.6771                 1.9309
 IR Inten    --      8.3749                25.7702               113.6887

                     46                     47                     48
                      A                      A                      A
 Frequencies --   1257.4651              1275.7214              1290.0815
 Red. masses --      1.9571                 1.5256                 1.4902
 Frc consts  --      1.8233                 1.4629                 1.4612
 IR Inten    --     33.6852               121.5699               267.2636

                     49                     50                     51
                      A                      A                      A
 Frequencies --   1311.9538              1315.2611              1337.4806
 Red. masses --      2.6452                 1.6207                 1.3327
 Frc consts  --      2.6826                 1.6518                 1.4046
 IR Inten    --      2.6591                97.5862                 7.0189

                     52                     53                     54
                      A                      A                      A
 Frequencies --   1404.7247              1424.6248              1424.9755
 Red. masses --      1.9199                 1.2856                 1.3235
 Frc consts  --      2.2321                 1.5372                 1.5835
 IR Inten    --    241.5885                13.9258                 0.0757

                     55                     56                     57
                      A                      A                      A
 Frequencies --   1436.3705              1457.3272              1494.8069
 Red. masses --      2.7184                 3.9236                 2.0106
 Frc consts  --      3.3045                 4.9097                 2.6469
 IR Inten    --     89.7014               232.7035               874.7300

                     58                     59                     60
                      A                      A                      A
 Frequencies --   1507.1619              1511.5284              1513.1107
 Red. masses --      1.0449                 1.0767                 1.2740
 Frc consts  --      1.3985                 1.4493                 1.7186
 IR Inten    --      6.2756                 3.2536                 7.1483

                     61                     62                     63
                      A                      A                      A
 Frequencies --   1522.4897              1523.4907              1533.4553
 Red. masses --      1.0481                 1.0732                 1.0932
 Frc consts  --      1.4315                 1.4676                 1.5146
 IR Inten    --     11.2215                 0.9169                24.0762

                     64                     65                     66
                      A                      A                      A
 Frequencies --   1541.6632              1624.4070              1641.1102
 Red. masses --      2.4401                 8.1979                 5.8821
 Frc consts  --      3.4169                12.7450                 9.3337
 IR Inten    --    538.7791                38.3811               508.3291

                     67                     68                     69
                      A                      A                      A
 Frequencies --   1701.4154              2954.2332              3050.9173
 Red. masses --      7.6719                 1.0737                 1.0665
 Frc consts  --     13.0850                 5.5209                 5.8491
 IR Inten    --    364.6200               144.3121                40.1408

                     70                     71                     72
                      A                      A                      A
 Frequencies --   3062.0788              3066.6514              3101.4160
 Red. masses --      1.0356                 1.0372                 1.0953
 Frc consts  --      5.7208                 5.7468                 6.2071
 IR Inten    --     53.2394                47.6981                12.1087

                     73                     74                     75
                      A                      A                      A
 Frequencies --   3120.1917              3130.2141              3132.5822
 Red. masses --      1.1004                 1.0991                 1.1013
 Frc consts  --      6.3122                 6.3450                 6.3672
 IR Inten    --     23.7396                46.7322                54.5782

                     76                     77                     78
                      A                      A                      A
 Frequencies --   3141.2129              3160.5350              3205.2342
 Red. masses --      1.0908                 1.1007                 1.0871
 Frc consts  --      6.3413                 6.4783                 6.5803
 IR Inten    --     34.0778                18.6337                13.6542

                     79                     80                     81
                      A                      A                      A
 Frequencies --   3224.0845              3265.5045              3615.8622
 Red. masses --      1.0947                 1.0903                 1.0756
 Frc consts  --      6.7043                 6.8501                 8.2854
 IR Inten    --     26.8238                 4.4650                 7.6569

 - Thermochemistry -
 -------------------
 Temperature   298.150 Kelvin.  Pressure   1.00000 Atm.
 Atom     1 has atomic number  6 and mass  12.00000

 Molecular mass:   225.07947 amu.
 Principal axes and moments of inertia in atomic units:
                           1         2         3
     Eigenvalues --   885.58086********************
           X            0.99999  -0.00298   0.00132
           Y            0.00298   1.00000  -0.00031
           Z           -0.00132   0.00032   1.00000
 This molecule is an asymmetric top.
 Rotational symmetry number  1.
 Warning -- assumption of classical behavior for rotation
           may cause significant error
 Rotational temperatures (Kelvin)      0.09780     0.00809     0.00752
 Rotational constants (GHZ):           2.03792     0.16850     0.15670
 Zero-point vibrational energy     620710.6 (Joules/Mol)
                                  148.35339 (Kcal/Mol)
 Warning -- explicit consideration of  22 degrees of freedom as
           vibrations may cause significant error
 Vibrational temperatures:     30.26    58.40    61.84   107.39   115.67
          (Kelvin)            185.10   218.25   237.25   298.29   311.78
                              333.50   343.20   367.00   424.00   468.59
                              513.07   589.55   648.26   654.52   748.66
                              801.75   835.18   902.41   980.43  1005.44
                             1084.20  1106.53  1130.90  1154.31  1197.82
                             1284.81  1318.38  1323.99  1378.77  1397.05
                             1452.48  1485.17  1503.50  1531.94  1539.62
                             1644.92  1659.67  1664.77  1707.97  1750.20
                             1809.21  1835.48  1856.14  1887.61  1892.37
                             1924.33  2021.08  2049.71  2050.22  2066.61
                             2096.77  2150.69  2168.47  2174.75  2177.03
                             2190.52  2191.96  2206.30  2218.11  2337.16
                             2361.19  2447.95  4250.48  4389.58  4405.64
                             4412.22  4462.24  4489.25  4503.67  4507.08
                             4519.50  4547.30  4611.61  4638.73  4698.33
                             5202.41

 Zero-point correction=                           0.236416 (Hartree/Particle)
 Thermal correction to Energy=                    0.251910
 Thermal correction to Enthalpy=                  0.252854
 Thermal correction to Gibbs Free Energy=         0.191449
 Sum of electronic and zero-point Energies=          -1072.093162
 Sum of electronic and thermal Energies=             -1072.077668
 Sum of electronic and thermal Enthalpies=           -1072.076724
 Sum of electronic and thermal Free Energies=        -1072.138130

                     E (Thermal)             CV                S
                      KCal/Mol        Cal/Mol-Kelvin    Cal/Mol-Kelvin
 Total                  158.076             56.125            129.239
 Electronic               0.000              0.000              0.000
 Translational            0.889              2.981             42.136
 Rotational               0.889              2.981             33.057
 Vibrational            156.298             50.164             54.045
 Vibration     1          0.593              1.986              6.534
 Vibration     2          0.594              1.981              5.230
 Vibration     3          0.595              1.980              5.117
 Vibration     4          0.599              1.966              4.027
 Vibration     5          0.600              1.962              3.881
 Vibration     6          0.611              1.925              2.966
 Vibration     7          0.619              1.901              2.651
 Vibration     8          0.623              1.886              2.493
 Vibration     9          0.641              1.829              2.067
 Vibration    10          0.646              1.816              1.987
 Vibration    11          0.653              1.792              1.865
 Vibration    12          0.657              1.782              1.814
 Vibration    13          0.665              1.754              1.695
 Vibration    14          0.689              1.684              1.447
 Vibration    15          0.710              1.624              1.281
 Vibration    16          0.732              1.562              1.137
 Vibration    17          0.774              1.449              0.927
 Vibration    18          0.809              1.360              0.794
 Vibration    19          0.813              1.350              0.781
 Vibration    20          0.875              1.205              0.609
 Vibration    21          0.913              1.124              0.529
 Vibration    22          0.937              1.074              0.484

 Optimization completed.
    -- Stationary point found.
 Normal termination of Gaussian 09 at Wed Oct 31 13:10:04 2018.
