 Gaussian 09, Revision E.01,

 ----------------------------------------------------------------------
 # M062X/Gen 6D SCF=Tight INT(grid=ultrafine) OPT=CalcFC IOP(2/17=4) SC
 RF=(SMD,Solvent=h2o) maxdisk=2147483648
 ----------------------------------------------------------------------

 -----------------------------------
 3TFM4Chloro.M062X_6-31pGd_opt_water
 -----------------------------------
 Symbolic Z-matrix:
 Charge =  0 Multiplicity = 1

 SCF Done:  E(RM062X) =  -1370.53940881     A.U. after   15 cycles
 SCF Done:  E(RM062X) =  -1370.55265314     A.U. after   16 cycles
 SCF Done:  E(RM062X) =  -1370.55268758     A.U. after   16 cycles
 SCF Done:  E(RM062X) =  -1370.55212564     A.U. after   15 cycles
 SCF Done:  E(RM062X) =  -1370.55277105     A.U. after   12 cycles
 SCF Done:  E(RM062X) =  -1370.55243371     A.U. after   15 cycles
 SCF Done:  E(RM062X) =  -1370.55285297     A.U. after   11 cycles
 SCF Done:  E(RM062X) =  -1370.54770258     A.U. after   15 cycles
 SCF Done:  E(RM062X) =  -1370.55285868     A.U. after    9 cycles
 SCF Done:  E(RM062X) =  -1370.55287508     A.U. after   11 cycles
 SCF Done:  E(RM062X) =  -1370.55290052     A.U. after   11 cycles
 SCF Done:  E(RM062X) =  -1370.55286751     A.U. after   12 cycles
 SCF Done:  E(RM062X) =  -1370.55289973     A.U. after   11 cycles
 SCF Done:  E(RM062X) =  -1370.55290148     A.U. after   10 cycles
 SCF Done:  E(RM062X) =  -1370.55290161     A.U. after   10 cycles
 SCF Done:  E(RM062X) =  -1370.55290172     A.U. after    9 cycles
 SCF Done:  E(RM062X) =  -1370.55290178     A.U. after    8 cycles
 SCF Done:  E(RM062X) =  -1370.55290185     A.U. after    9 cycles
 SCF Done:  E(RM062X) =  -1370.55290187     A.U. after    8 cycles
 Optimization completed.
    -- Stationary point found.
 Normal termination of Gaussian 09 at Wed Feb 27 13:12:30 2019.
 Gaussian 09:  ES64L-G09RevE.01 30-Nov-2015

 ----------------------------------------------------------------------
 # M062X/Gen 6D SCF=Tight INT(grid=ultrafine) SCRF=(SMD,Solvent=h2o) Fr
 eq=Noraman maxdisk=2147483648 geom=check guess=read IOP(2/17=4)
 ----------------------------------------------------------------------

 -----------------------------------
 3TFM4Chloro.M062X_6-31pGd_opt_water
 -----------------------------------
 Structure from the checkpoint file:  "3TFM4Chloro.M062X_6-31pGd_opt_water.chk"
 Charge =  0 Multiplicity = 1

                         Standard orientation:
 ---------------------------------------------------------------------
 Center     Atomic      Atomic             Coordinates (Angstroms)
 Number     Number       Type             X           Y           Z
 ---------------------------------------------------------------------
      1          6           0        7.260135    0.680417    0.094547
      2          6           0        6.097358   -0.286107   -0.105517
      3          6           0        4.761535    0.416646    0.083603
      4          7           0        3.664514   -0.523963   -0.108517
      5          6           0        2.378348   -0.131191    0.007980
      6          8           0        2.062940    1.052635    0.205086
      7          7           0        1.450667   -1.145844   -0.117163
      8          6           0        0.058283   -1.049057   -0.057802
      9          6           0       -0.643441    0.162156   -0.073797
     10          6           0       -0.664610   -2.249305   -0.003521
     11          6           0       -2.050557   -2.246365    0.039040
     12          6           0       -2.743810   -1.040534    0.031545
     13          6           0       -2.036648    0.160555   -0.025258
     14          1           0        8.219476    0.173231   -0.044062
     15          1           0        7.246193    1.106366    1.103800
     16          1           0        7.209001    1.507700   -0.621847
     17          1           0        6.172993   -1.115978    0.608013
     18          1           0        6.137915   -0.719284   -1.112289
     19          1           0        4.661802    1.236193   -0.636742
     20          1           0        4.703342    0.852067    1.088835
     21          1           0        3.885582   -1.509488   -0.202902
     22          1           0        1.813863   -2.090180   -0.203480
     23          1           0       -0.111402    1.100223   -0.126882
     24          1           0       -0.132684   -3.196875    0.005748
     25          1           0       -2.594928   -3.184025    0.081706
     26         17           0       -4.487483   -1.077791    0.091830
     27          6           0       -2.759672    1.481007   -0.041504
     28          9           0       -1.916561    2.523861   -0.097612
     29          9           0       -3.517909    1.660530    1.058163
     30          9           0       -3.585004    1.597910   -1.100310
 ---------------------------------------------------------------------

 SCF Done:  E(RM062X) =  -1370.55290187     A.U. after    1 cycles

 The electronic state is 1-A.
 Alpha  occ. eigenvalues -- -102.68395 -25.31115 -25.30753 -25.30743 -19.62539
 Alpha  occ. eigenvalues --  -14.80704 -14.78828 -10.82259 -10.69614 -10.63123
 Alpha  occ. eigenvalues --  -10.62163 -10.59907 -10.57733 -10.57679 -10.57475
 Alpha  occ. eigenvalues --  -10.57254 -10.54206 -10.52969  -9.83041  -7.55448
 Alpha  occ. eigenvalues --   -7.54781  -7.54764  -1.47602  -1.38331  -1.38003
 Alpha  occ. eigenvalues --   -1.18549  -1.06759  -1.03529  -1.01163  -0.94772
 Alpha  occ. eigenvalues --   -0.90217  -0.88133  -0.84501  -0.81620  -0.77731
 Alpha  occ. eigenvalues --   -0.74323  -0.72314  -0.69913  -0.69876  -0.68557
 Alpha  occ. eigenvalues --   -0.68125  -0.66020  -0.63457  -0.59481  -0.58116
 Alpha  occ. eigenvalues --   -0.58056  -0.57221  -0.56011  -0.55430  -0.53965
 Alpha  occ. eigenvalues --   -0.53682  -0.53449  -0.52397  -0.51885  -0.51405
 Alpha  occ. eigenvalues --   -0.50862  -0.48949  -0.48432  -0.46678  -0.45868
 Alpha  occ. eigenvalues --   -0.45745  -0.43955  -0.42730  -0.42014  -0.39932
 Alpha  occ. eigenvalues --   -0.39251  -0.38819  -0.37437  -0.36124  -0.33444
 Alpha  occ. eigenvalues --   -0.32821  -0.27633
 Alpha virt. eigenvalues --   -0.01009   0.00317   0.01373   0.02012   0.03042
 Alpha virt. eigenvalues --    0.03724   0.04163   0.04264   0.04546   0.05629
 Alpha virt. eigenvalues --    0.05776   0.05972   0.06605   0.07540   0.07592

 Mulliken charges:
               1
     1  C   -0.738987
     2  C   -0.392016
     3  C   -0.138607
     4  N   -0.670081
     5  C    0.840917
     6  O   -0.753326
     7  N   -0.659033
     8  C   -0.140816
     9  C    0.283162
    10  C   -0.962364
    11  C   -0.112992
    12  C    0.435276
    13  C   -1.142700
    14  H    0.223737
    15  H    0.222552
    16  H    0.222196
    17  H    0.233683
    18  H    0.235321
    19  H    0.238732
    20  H    0.236389
    21  H    0.483837
    22  H    0.498986
    23  H    0.298544
    24  H    0.273702
    25  H    0.278719
    26  Cl   0.238346
    27  C    1.369512
    28  F   -0.342679
    29  F   -0.280277
    30  F   -0.279733
 Sum of Mulliken charges =  -0.00000

 Dipole moment (field-independent basis, Debye):
    X=              8.1921    Y=             -9.1985    Z=             -0.7580  Tot=             12.3409
 Quadrupole moment (field-independent basis, Debye-Ang):
   XX=            -99.8839   YY=           -101.8768   ZZ=           -115.5923
   XY=             -8.1749   XZ=             -1.6050   YZ=             -0.2716

  Exact polarizability: 297.381   7.338 224.214  -3.296   1.687 145.247
 Approx polarizability: 238.386   2.122 197.086  -3.207   1.355 130.763

                      1                      2                      3
                      A                      A                      A
 Frequencies --     11.2571                29.4095                43.0206
 Red. masses --      4.8779                 5.5644                 2.5147
 Frc consts  --      0.0004                 0.0028                 0.0027
 IR Inten    --      4.7977                35.5348                13.6830

                      4                      5                      6
                      A                      A                      A
 Frequencies --     51.3397                57.3545                64.0374
 Red. masses --      3.3662                 5.8079                 6.0472
 Frc consts  --      0.0052                 0.0113                 0.0146
 IR Inten    --      7.8012                 0.0222                 0.0216

                      7                      8                      9
                      A                      A                      A
 Frequencies --    109.8435               126.4259               141.3185
 Red. masses --      5.4204                 5.7652                 4.3378
 Frc consts  --      0.0385                 0.0543                 0.0510
 IR Inten    --      0.0773                 2.7913                 5.3858

                     10                     11                     12
                      A                      A                      A
 Frequencies --    149.8941               175.5303               228.7334
 Red. masses --      4.7244                12.2808                 6.4628
 Frc consts  --      0.0625                 0.2229                 0.1992
 IR Inten    --     13.0090                 3.0824                 0.1145

                     13                     14                     15
                      A                      A                      A
 Frequencies --    243.6047               254.4979               291.4761
 Red. masses --      1.1187                 5.7981                 1.1911
 Frc consts  --      0.0391                 0.2213                 0.0596
 IR Inten    --      1.3016                 9.0217                55.7667

                     16                     17                     18
                      A                      A                      A
 Frequencies --    307.6499               314.2358               348.4814
 Red. masses --     13.9610                 5.8507                 4.6235
 Frc consts  --      0.7785                 0.3404                 0.3308
 IR Inten    --      3.8429                 3.7161                18.1411

                     19                     20                     21
                      A                      A                      A
 Frequencies --    349.9934               378.3724               417.3592
 Red. masses --      5.9105                 8.7511                 5.2256
 Frc consts  --      0.4266                 0.7382                 0.5363
 IR Inten    --      0.2694                 5.2326                23.3628

                     22                     23                     24
                      A                      A                      A
 Frequencies --    456.3833               461.0123               511.7243
 Red. masses --      6.7668                 3.9090                 1.1937
 Frc consts  --      0.8304                 0.4895                 0.1842
 IR Inten    --      3.1796                 6.8407               273.6961

                     25                     26                     27
                      A                      A                      A
 Frequencies --    524.4377               537.6743               595.6823
 Red. masses --      5.8885                 7.1964                 8.9981
 Frc consts  --      0.9542                 1.2258                 1.8812
 IR Inten    --     37.3802                17.3848                 4.7903

                     28                     29                     30
                      A                      A                      A
 Frequencies --    649.9689               668.6305               703.0154
 Red. masses --      4.8069                 8.7071                 7.3036
 Frc consts  --      1.1965                 2.2935                 2.1267
 IR Inten    --      4.9209                37.3109                11.5932

                     31                     32                     33
                      A                      A                      A
 Frequencies --    740.4271               757.9472               768.5420
 Red. masses --      4.5322                 1.5945                 2.3831
 Frc consts  --      1.4639                 0.5397                 0.8293
 IR Inten    --      1.4685                24.7465                 5.7431

                     34                     35                     36
                      A                      A                      A
 Frequencies --    771.0039               794.8168               852.5753
 Red. masses --      9.0716                 7.1314                 1.4313
 Frc consts  --      3.1772                 2.6543                 0.6130
 IR Inten    --      5.2710                13.2970                66.3478

                     37                     38                     39
                      A                      A                      A
 Frequencies --    906.6911               918.4332               928.9943
 Red. masses --      1.1497                 1.4998                 1.8549
 Frc consts  --      0.5569                 0.7454                 0.9432
 IR Inten    --      2.6228                58.5200                 0.4984

                     40                     41                     42
                      A                      A                      A
 Frequencies --    953.5225               992.6436              1045.4240
 Red. masses --      4.3429                 1.3406                 5.7874
 Frc consts  --      2.3265                 0.7783                 3.7266
 IR Inten    --     32.7477                 0.4010                31.3567

                     43                     44                     45
                      A                      A                      A
 Frequencies --   1052.0590              1085.7767              1149.0873
 Red. masses --      4.2479                 2.5430                 2.0322
 Frc consts  --      2.7702                 1.7664                 1.5809
 IR Inten    --     13.0868                 6.2057                51.7482

                     46                     47                     48
                      A                      A                      A
 Frequencies --   1150.5884              1166.8080              1173.3221
 Red. masses --      3.3613                12.7001                 3.1679
 Frc consts  --      2.6218                10.1873                 2.5695
 IR Inten    --     76.0395               446.4487                 7.4537

                     49                     50                     51
                      A                      A                      A
 Frequencies --   1181.9091              1185.3599              1213.9340
 Red. masses --      1.6402                 2.8979                 1.9604
 Frc consts  --      1.3500                 2.3990                 1.7021
 IR Inten    --      5.0096               135.4694               287.5208

                     52                     53                     54
                      A                      A                      A
 Frequencies --   1271.4220              1280.4837              1283.5179
 Red. masses --      1.9097                 1.3439                 1.6419
 Frc consts  --      1.8188                 1.2983                 1.5937
 IR Inten    --    405.3868                 5.0146                77.4856

                     55                     56                     57
                      A                      A                      A
 Frequencies --   1305.5577              1319.9623              1329.0762
 Red. masses --      2.3696                 2.5179                 1.0747
 Frc consts  --      2.3797                 2.5847                 1.1185
 IR Inten    --    208.5011               178.7370                 2.5333

                     58                     59                     60
                      A                      A                      A
 Frequencies --   1352.0261              1386.3736              1420.6347
 Red. masses --      1.5446                 4.4948                 1.2790
 Frc consts  --      1.6636                 5.0901                 1.5208
 IR Inten    --     99.0210               279.4555                 0.6838

                     61                     62                     63
                      A                      A                      A
 Frequencies --   1430.1886              1476.2917              1491.3559
 Red. masses --      1.6393                 5.2277                 1.0578
 Frc consts  --      1.9756                 6.7128                 1.3861
 IR Inten    --      4.1671               444.6276                10.8354

                     64                     65                     66
                      A                      A                      A
 Frequencies --   1503.7379              1512.5620              1531.2992
 Red. masses --      1.0397                 1.0855                 1.0967
 Frc consts  --      1.3852                 1.4632                 1.5152
 IR Inten    --     11.8720                16.3566                61.9436

                     67                     68                     69
                      A                      A                      A
 Frequencies --   1536.1055              1571.1151              1592.3939
 Red. masses --      2.4777                 2.1273                 2.5167
 Frc consts  --      3.4446                 3.0938                 3.7599
 IR Inten    --    474.1433               402.9971              1166.1935

                     70                     71                     72
                      A                      A                      A
 Frequencies --   1666.1458              1690.0111              1706.4655
 Red. masses --      8.0747                 4.8024                 3.8663
 Frc consts  --     13.2069                 8.0814                 6.6336
 IR Inten    --    118.1256                31.6761               672.3228

                     73                     74                     75
                      A                      A                      A
 Frequencies --   3072.8296              3077.6829              3079.4915
 Red. masses --      1.0602                 1.0405                 1.0561
 Frc consts  --      5.8984                 5.8067                 5.9007
 IR Inten    --      4.9619                11.5903               124.3064

                     76                     77                     78
                      A                      A                      A
 Frequencies --   3107.1516              3126.9473              3147.9109
 Red. masses --      1.1020                 1.1064                 1.1040
 Frc consts  --      6.2685                 6.3739                 6.4455
 IR Inten    --      2.4940                52.5380                94.0460

                     79                     80                     81
                      A                      A                      A
 Frequencies --   3157.6913              3227.3462              3254.0871
 Red. masses --      1.1023                 1.0922                 1.0950
 Frc consts  --      6.4755                 6.7023                 6.8318
 IR Inten    --     47.4851                 2.9980                 0.2103

                     82                     83                     84
                      A                      A                      A
 Frequencies --   3309.4400              3595.8823              3619.7275
 Red. masses --      1.0918                 1.0785                 1.0796
 Frc consts  --      7.0456                 8.2166                 8.3343
 IR Inten    --     29.1105                38.4926               252.2392

 - Thermochemistry -
 -------------------
 Temperature   298.150 Kelvin.  Pressure   1.00000 Atm.
 Atom     1 has atomic number  6 and mass  12.00000

 Molecular mass:   280.05903 amu.
 Principal axes and moments of inertia in atomic units:
                           1         2         3
     Eigenvalues --  2043.88615********************
           X            0.99996   0.00890   0.00027
           Y           -0.00890   0.99996   0.00254
           Z           -0.00024  -0.00255   1.00000
 This molecule is an asymmetric top.
 Rotational symmetry number  1.
 Warning -- assumption of classical behavior for rotation
           may cause significant error
 Rotational temperatures (Kelvin)      0.04238     0.00672     0.00595
 Rotational constants (GHZ):           0.88299     0.14009     0.12394
 Zero-point vibrational energy     594694.4 (Joules/Mol)
                                  142.13538 (Kcal/Mol)
 Warning -- explicit consideration of  27 degrees of freedom as
           vibrations may cause significant error
 Vibrational temperatures:     16.20    42.31    61.90    73.87    82.52
          (Kelvin)             92.14   158.04   181.90   203.33   215.66
                              252.55   329.10   350.49   366.17   419.37
                              442.64   452.11   501.39   503.56   544.39
                              600.49   656.63   663.29   736.26   754.55
                              773.59   857.05   935.16   962.01  1011.48
                             1065.31  1090.52  1105.76  1109.30  1143.56
                             1226.66  1304.52  1321.42  1336.61  1371.90
                             1428.19  1504.13  1513.68  1562.19  1653.28
                             1655.44  1678.77  1688.15  1700.50  1705.47
                             1746.58  1829.29  1842.33  1846.69  1878.40
                             1899.13  1912.24  1945.26  1994.68  2043.97
                             2057.72  2124.05  2145.73  2163.54  2176.24
                             2203.20  2210.11  2260.48  2291.10  2397.21
                             2431.55  2455.22  4421.11  4428.09  4430.70
                             4470.49  4498.97  4529.14  4543.21  4643.43
                             4681.90  4761.54  5173.67  5207.97

 Zero-point correction=                           0.226507 (Hartree/Particle)
 Thermal correction to Energy=                    0.244600
 Thermal correction to Enthalpy=                  0.245544
 Thermal correction to Gibbs Free Energy=         0.176612
 Sum of electronic and zero-point Energies=          -1370.326395
 Sum of electronic and thermal Energies=             -1370.308302
 Sum of electronic and thermal Enthalpies=           -1370.307358
 Sum of electronic and thermal Free Energies=        -1370.376290

                     E (Thermal)             CV                S
                      KCal/Mol        Cal/Mol-Kelvin    Cal/Mol-Kelvin
 Total                  153.489             64.613            145.079
 Electronic               0.000              0.000              0.000
 Translational            0.889              2.981             42.788
 Rotational               0.889              2.981             34.305
 Vibrational            151.711             58.652             67.987
 Vibration     1          0.593              1.987              7.776
 Vibration     2          0.593              1.984              5.869
 Vibration     3          0.595              1.980              5.115
 Vibration     4          0.596              1.977              4.765
 Vibration     5          0.596              1.975              4.546
 Vibration     6          0.597              1.971              4.329
 Vibration     7          0.606              1.941              3.272
 Vibration     8          0.611              1.927              3.000
 Vibration     9          0.615              1.912              2.786
 Vibration    10          0.618              1.903              2.674
 Vibration    11          0.627              1.873              2.375
 Vibration    12          0.651              1.797              1.889
 Vibration    13          0.659              1.773              1.776
 Vibration    14          0.665              1.755              1.699
 Vibration    15          0.687              1.690              1.465
 Vibration    16          0.698              1.659              1.375
 Vibration    17          0.702              1.646              1.340
 Vibration    18          0.726              1.578              1.173
 Vibration    19          0.727              1.575              1.166
 Vibration    20          0.749              1.516              1.046
 Vibration    21          0.780              1.433              0.901
 Vibration    22          0.815              1.347              0.777
 Vibration    23          0.819              1.337              0.763
 Vibration    24          0.867              1.224              0.629
 Vibration    25          0.879              1.196              0.600
 Vibration    26          0.893              1.167              0.570
 Vibration    27          0.953              1.041              0.457

 Optimization completed.
    -- Stationary point found.
 Normal termination of Gaussian 09 at Wed Feb 27 13:56:34 2019.
