 Gaussian 09, Revision E.01,

 ----------------------------------------------------------------------
 # M062X/Gen 6D SCF=Tight INT(grid=ultrafine) OPT=CalcFC IOP(2/17=4) SC
 RF=(SMD,Solvent=h2o) maxdisk=2147483648
 ----------------------------------------------------------------------

 --------------------------------------
 3TFM4Chloro_a1.M062X_6-31pGd_opt_water
 --------------------------------------
 Symbolic Z-matrix:
 Charge = -1 Multiplicity = 1

 SCF Done:  E(RM062X) =  -1370.04959185     A.U. after   15 cycles
 SCF Done:  E(RM062X) =  -1370.07108066     A.U. after   16 cycles
 SCF Done:  E(RM062X) =  -1370.06821904     A.U. after   16 cycles
 SCF Done:  E(RM062X) =  -1370.07234143     A.U. after   15 cycles
 SCF Done:  E(RM062X) =  -1370.07258341     A.U. after   14 cycles
 SCF Done:  E(RM062X) =  -1370.01747200     A.U. after   16 cycles
 SCF Done:  E(RM062X) =  -1370.07262256     A.U. after   11 cycles
 SCF Done:  E(RM062X) =  -1370.07285597     A.U. after   15 cycles
 SCF Done:  E(RM062X) =  -1370.07295978     A.U. after   14 cycles
 SCF Done:  E(RM062X) =  -1370.07307305     A.U. after   13 cycles
 SCF Done:  E(RM062X) =  -1370.07311723     A.U. after   11 cycles
 SCF Done:  E(RM062X) =  -1370.07313574     A.U. after   13 cycles
 SCF Done:  E(RM062X) =  -1370.07315647     A.U. after   14 cycles
 SCF Done:  E(RM062X) =  -1370.07316290     A.U. after   12 cycles
 SCF Done:  E(RM062X) =  -1370.07316476     A.U. after   13 cycles
 SCF Done:  E(RM062X) =  -1370.07316756     A.U. after   11 cycles
 SCF Done:  E(RM062X) =  -1370.07316863     A.U. after   10 cycles
 SCF Done:  E(RM062X) =  -1370.07316860     A.U. after   11 cycles
 SCF Done:  E(RM062X) =  -1370.07316852     A.U. after   10 cycles
 Optimization completed.
    -- Stationary point found.
 Normal termination of Gaussian 09 at Wed Feb 27 12:07:41 2019.
 Gaussian 09:  ES64L-G09RevE.01 30-Nov-2015

 ----------------------------------------------------------------------
 # M062X/Gen 6D SCF=Tight INT(grid=ultrafine) SCRF=(SMD,Solvent=h2o) Fr
 eq=Noraman maxdisk=2147483648 geom=check guess=read IOP(2/17=4)
 ----------------------------------------------------------------------

 --------------------------------------
 3TFM4Chloro_a1.M062X_6-31pGd_opt_water
 --------------------------------------
 Structure from the checkpoint file:  "3TFM4Chloro_a1.M062X_6-31pGd_opt_water.chk"
 Charge = -1 Multiplicity = 1

                         Standard orientation:
 ---------------------------------------------------------------------
 Center     Atomic      Atomic             Coordinates (Angstroms)
 Number     Number       Type             X           Y           Z
 ---------------------------------------------------------------------
      1          6           0        7.042957    0.960418    0.238304
      2          6           0        5.997618   -0.148353    0.312366
      3          6           0        4.629470    0.343629   -0.137675
      4          7           0        3.642966   -0.724746   -0.042245
      5          6           0        2.303971   -0.450929   -0.301921
      6          8           0        2.035418    0.567395   -1.006838
      7          7           0        1.456439   -1.370482    0.178893
      8          6           0        0.095106   -1.179791    0.077083
      9          6           0       -0.563715    0.072592    0.093423
     10          6           0       -0.735115   -2.321874    0.047335
     11          6           0       -2.120060   -2.232355    0.012811
     12          6           0       -2.739275   -0.986947    0.015230
     13          6           0       -1.952596    0.167304    0.062312
     14          1           0        8.024948    0.600581    0.560383
     15          1           0        6.766396    1.803713    0.881061
     16          1           0        7.141875    1.337152   -0.785978
     17          1           0        5.925774   -0.523333    1.341794
     18          1           0        6.302219   -0.994199   -0.316084
     19          1           0        4.685830    0.685734   -1.176124
     20          1           0        4.333058    1.211577    0.471205
     21          1           0        3.778588   -1.355602    0.740812
     22          1           0        0.022349    0.979999    0.149350
     23          1           0       -0.267396   -3.302611    0.049995
     24          1           0       -2.725828   -3.133042   -0.018081
     25         17           0       -4.487665   -0.915007   -0.036478
     26          6           0       -2.589756    1.528680    0.091857
     27          9           0       -1.684997    2.521175    0.135082
     28          9           0       -3.390746    1.699916    1.164959
     29          9           0       -3.356291    1.763170   -0.994129
 ---------------------------------------------------------------------

 SCF Done:  E(RM062X) =  -1370.07316852     A.U. after    1 cycles

 The electronic state is 1-A.
 Alpha  occ. eigenvalues -- -102.67629 -25.30646 -25.30280 -25.30266 -19.59376
 Alpha  occ. eigenvalues --  -14.75446 -14.71114 -10.81624 -10.64730 -10.61621
 Alpha  occ. eigenvalues --  -10.58732 -10.58641 -10.56332 -10.56308 -10.55651
 Alpha  occ. eigenvalues --  -10.55038 -10.53571 -10.52684  -9.82269  -7.54671
 Alpha  occ. eigenvalues --   -7.54014  -7.54003  -1.47053  -1.37801  -1.37465
 Alpha  occ. eigenvalues --   -1.13662  -1.01067  -1.00414  -0.97911  -0.92609
 Alpha  occ. eigenvalues --   -0.88592  -0.86766  -0.82067  -0.80164  -0.75672
 Alpha  occ. eigenvalues --   -0.72478  -0.70800  -0.69347  -0.68309  -0.66983
 Alpha  occ. eigenvalues --   -0.65496  -0.61228  -0.58221  -0.57658  -0.57247
 Alpha  occ. eigenvalues --   -0.55777  -0.54974  -0.53983  -0.53444  -0.53191
 Alpha  occ. eigenvalues --   -0.51722  -0.51436  -0.50893  -0.49408  -0.48710
 Alpha  occ. eigenvalues --   -0.47785  -0.47022  -0.45384  -0.44528  -0.44090
 Alpha  occ. eigenvalues --   -0.42286  -0.41598  -0.40601  -0.38962  -0.38589
 Alpha  occ. eigenvalues --   -0.37964  -0.35538  -0.33712  -0.31955  -0.31183
 Alpha  occ. eigenvalues --   -0.29542  -0.23728
 Alpha virt. eigenvalues --    0.00413   0.01352   0.01841   0.02861   0.03438
 Alpha virt. eigenvalues --    0.04005   0.04416   0.04494   0.04957   0.05897
 Alpha virt. eigenvalues --    0.06128   0.06322   0.07079   0.07316   0.08005

 Mulliken charges:
               1
     1  C   -0.734793
     2  C   -0.373753
     3  C   -0.215811
     4  N   -0.615058
     5  C    0.686463
     6  O   -0.847530
     7  N   -0.640416
     8  C   -0.059091
     9  C   -0.090245
    10  C   -0.326424
    11  C   -0.157622
    12  C    0.274183
    13  C   -1.154357
    14  H    0.220046
    15  H    0.219646
    16  H    0.219581
    17  H    0.221986
    18  H    0.227281
    19  H    0.222647
    20  H    0.206934
    21  H    0.429308
    22  H    0.263588
    23  H    0.245708
    24  H    0.263905
    25  Cl   0.205317
    26  C    1.230381
    27  F   -0.347317
    28  F   -0.287733
    29  F   -0.286823
 Sum of Mulliken charges =  -1.00000

 Dipole moment (field-independent basis, Debye):
    X=              0.2373    Y=             -1.0002    Z=              3.4792  Tot=              3.6278
 Quadrupole moment (field-independent basis, Debye-Ang):
   XX=           -132.7163   YY=           -120.4558   ZZ=           -120.9986
   XY=              7.1280   XZ=              9.6886   YZ=              2.0911

  Exact polarizability: 334.248  11.881 234.843  -0.618  -9.156 162.249
 Approx polarizability: 259.752   4.768 201.952   0.919  -7.159 143.329

                      1                      2                      3
                      A                      A                      A
 Frequencies --     12.8451                26.1343                52.5720
 Red. masses --      5.5759                 6.0404                 5.5318
 Frc consts  --      0.0005                 0.0024                 0.0090
 IR Inten    --      8.8346                 3.0633                 0.2623

                      4                      5                      6
                      A                      A                      A
 Frequencies --     61.1100                71.0819                82.6443
 Red. masses --      3.1941                 4.9490                 3.4367
 Frc consts  --      0.0070                 0.0147                 0.0138
 IR Inten    --      1.7996                 5.0658                10.1300

                      7                      8                      9
                      A                      A                      A
 Frequencies --    116.3226               122.7084               149.5149
 Red. masses --      5.3341                 5.5330                 3.4039
 Frc consts  --      0.0425                 0.0491                 0.0448
 IR Inten    --      6.6158                 3.4969                13.4967

                     10                     11                     12
                      A                      A                      A
 Frequencies --    162.5219               176.8149               232.5118
 Red. masses --      7.7234                 8.6611                 4.1210
 Frc consts  --      0.1202                 0.1595                 0.1313
 IR Inten    --     14.5436                 2.1540                 6.9965

                     13                     14                     15
                      A                      A                      A
 Frequencies --    244.5020               260.1631               306.2287
 Red. masses --      1.3208                 5.1229                13.5531
 Frc consts  --      0.0465                 0.2043                 0.7488
 IR Inten    --      4.0449                17.0134                 2.9655

                     16                     17                     18
                      A                      A                      A
 Frequencies --    315.1343               342.4162               349.3105
 Red. masses --      6.7333                 4.4253                 6.3825
 Frc consts  --      0.3940                 0.3057                 0.4588
 IR Inten    --      8.2261                31.7474                 1.8428

                     19                     20                     21
                      A                      A                      A
 Frequencies --    392.1991               409.7092               459.9664
 Red. masses --      9.9740                 4.9129                 5.4575
 Frc consts  --      0.9039                 0.4859                 0.6803
 IR Inten    --     27.1288                52.5150                 4.8430

                     22                     23                     24
                      A                      A                      A
 Frequencies --    464.9507               503.4101               540.9050
 Red. masses --      4.0333                 2.6728                 7.5499
 Frc consts  --      0.5137                 0.3991                 1.3015
 IR Inten    --      4.5761                55.5798                16.9284

                     25                     26                     27
                      A                      A                      A
 Frequencies --    551.0918               596.5293               655.6387
 Red. masses --      2.0230                 7.6175                 5.3517
 Frc consts  --      0.3620                 1.5971                 1.3554
 IR Inten    --    292.2876                16.9829                 5.8777

                     28                     29                     30
                      A                      A                      A
 Frequencies --    672.6216               698.0408               727.8384
 Red. masses --      6.4587                 7.0132                 4.3719
 Frc consts  --      1.7216                 2.0134                 1.3646
 IR Inten    --     20.4243                23.8160                 3.4798

                     31                     32                     33
                      A                      A                      A
 Frequencies --    758.7039               768.6162               777.3124
 Red. masses --      1.1636                 6.8364                 4.8683
 Frc consts  --      0.3946                 2.3796                 1.7331
 IR Inten    --     11.9444                 1.6483                69.8965

                     34                     35                     36
                      A                      A                      A
 Frequencies --    802.0332               858.2811               899.1672
 Red. masses --      7.5785                 1.4684                 1.6462
 Frc consts  --      2.8722                 0.6373                 0.7842
 IR Inten    --     52.9800                48.5266                58.1776

                     37                     38                     39
                      A                      A                      A
 Frequencies --    904.9002               926.6596               945.6979
 Red. masses --      1.1771                 2.0896                 3.4573
 Frc consts  --      0.5679                 1.0572                 1.8217
 IR Inten    --      8.7216                13.2759                35.5470

                     40                     41                     42
                      A                      A                      A
 Frequencies --    991.2194              1027.4866              1036.4421
 Red. masses --      1.3252                 4.5364                 5.8364
 Frc consts  --      0.7671                 2.8217                 3.6939
 IR Inten    --      0.6597                69.1175                33.5425

                     43                     44                     45
                      A                      A                      A
 Frequencies --   1080.1149              1137.7541              1146.5730
 Red. masses --      2.5047                 2.1009                 2.2205
 Frc consts  --      1.7217                 1.6024                 1.7199
 IR Inten    --     25.7239                81.2991                91.2185

                     46                     47                     48
                      A                      A                      A
 Frequencies --   1155.0480              1157.7157              1166.3245
 Red. masses --      1.7189                12.0182                 1.8575
 Frc consts  --      1.3511                 9.4906                 1.4888
 IR Inten    --     23.4023               444.3852                 6.6172

                     49                     50                     51
                      A                      A                      A
 Frequencies --   1184.8900              1197.5635              1258.0811
 Red. masses --      2.8824                 4.6082                 1.7014
 Frc consts  --      2.3843                 3.8938                 1.5866
 IR Inten    --     53.7841               548.8168               131.6683

                     52                     53                     54
                      A                      A                      A
 Frequencies --   1277.8128              1290.3847              1313.2114
 Red. masses --      1.4304                 1.7105                 2.7450
 Frc consts  --      1.3761                 1.6781                 2.7891
 IR Inten    --    227.5820                55.8576               109.6754

                     55                     56                     57
                      A                      A                      A
 Frequencies --   1320.3966              1326.7855              1352.9525
 Red. masses --      1.5619                 1.4433                 2.3183
 Frc consts  --      1.6044                 1.4970                 2.5002
 IR Inten    --     35.1292               208.9269               223.7724

                     58                     59                     60
                      A                      A                      A
 Frequencies --   1398.8336              1421.4817              1440.7336
 Red. masses --      2.7988                 1.3373                 2.3510
 Frc consts  --      3.2267                 1.5921                 2.8752
 IR Inten    --    774.9990                85.0063               571.9023

                     61                     62                     63
                      A                      A                      A
 Frequencies --   1458.3632              1480.0156              1492.3635
 Red. masses --      5.4548                 2.1465                 1.1009
 Frc consts  --      6.8354                 2.7703                 1.4446
 IR Inten    --    475.8735               898.2529                45.5575

                     64                     65                     66
                      A                      A                      A
 Frequencies --   1504.0701              1514.5832              1531.6576
 Red. masses --      1.0406                 1.1122                 2.3780
 Frc consts  --      1.3870                 1.5032                 3.2869
 IR Inten    --     11.6095                68.3877               380.9720

                     67                     68                     69
                      A                      A                      A
 Frequencies --   1532.8859              1562.0936              1636.6051
 Red. masses --      1.2631                 4.1329                 8.1843
 Frc consts  --      1.7487                 5.9418                12.9157
 IR Inten    --    263.6505              1301.5658                 9.6328

                     70                     71                     72
                      A                      A                      A
 Frequencies --   1667.1817              3034.2210              3066.7589
 Red. masses --      6.8392                 1.0706                 1.0613
 Frc consts  --     11.2001                 5.8073                 5.8809
 IR Inten    --     47.0708               101.9088                55.0277

                     73                     74                     75
                      A                      A                      A
 Frequencies --   3074.4612              3101.7702              3120.4556
 Red. masses --      1.0364                 1.0971                 1.0974
 Frc consts  --      5.7720                 6.2188                 6.2961
 IR Inten    --     42.8779                16.9079                71.4645

                     76                     77                     78
                      A                      A                      A
 Frequencies --   3143.0447              3152.4508              3226.9695
 Red. masses --      1.1035                 1.1021                 1.0897
 Frc consts  --      6.4229                 6.4533                 6.6854
 IR Inten    --     98.3929                53.1097                12.0138

                     79                     80                     81
                      A                      A                      A
 Frequencies --   3244.6202              3286.9995              3597.4898
 Red. masses --      1.0954                 1.0906                 1.0769
 Frc consts  --      6.7947                 6.9423                 8.2112
 IR Inten    --      2.7160                 3.1868                61.7774

 - Thermochemistry -
 -------------------
 Temperature   298.150 Kelvin.  Pressure   1.00000 Atm.
 Atom     1 has atomic number  6 and mass  12.00000

 Molecular mass:   279.05120 amu.
 Principal axes and moments of inertia in atomic units:
                           1         2         3
     Eigenvalues --  2149.33024********************
           X            0.99990   0.01405   0.00331
           Y           -0.01404   0.99990  -0.00266
           Z           -0.00335   0.00261   0.99999
 This molecule is an asymmetric top.
 Rotational symmetry number  1.
 Warning -- assumption of classical behavior for rotation
           may cause significant error
 Rotational temperatures (Kelvin)      0.04030     0.00701     0.00618
 Rotational constants (GHZ):           0.83968     0.14599     0.12886
 Zero-point vibrational energy     559312.1 (Joules/Mol)
                                  133.67879 (Kcal/Mol)
 Warning -- explicit consideration of  26 degrees of freedom as
           vibrations may cause significant error
 Vibrational temperatures:     18.48    37.60    75.64    87.92   102.27
          (Kelvin)            118.91   167.36   176.55   215.12   233.83
                              254.40   334.53   351.78   374.32   440.59
                              453.41   492.66   502.58   564.29   589.48
                              661.79   668.96   724.29   778.24   792.90
                              858.27   943.32   967.75  1004.32  1047.20
                             1091.60  1105.87  1118.38  1153.95  1234.87
                             1293.70  1301.95  1333.25  1360.65  1426.14
                             1478.32  1491.21  1554.04  1636.97  1649.66
                             1661.85  1665.69  1678.08  1704.79  1723.02
                             1810.10  1838.49  1856.57  1889.42  1899.75
                             1908.95  1946.59  2012.61  2045.19  2072.89
                             2098.26  2129.41  2147.18  2164.02  2179.14
                             2203.71  2205.48  2247.50  2354.71  2398.70
                             4365.56  4412.38  4423.46  4462.75  4489.63
                             4522.13  4535.67  4642.88  4668.28  4729.25
                             5175.98

 Zero-point correction=                           0.213031 (Hartree/Particle)
 Thermal correction to Energy=                    0.230527
 Thermal correction to Enthalpy=                  0.231471
 Thermal correction to Gibbs Free Energy=         0.164263
 Sum of electronic and zero-point Energies=          -1369.860138
 Sum of electronic and thermal Energies=             -1369.842642
 Sum of electronic and thermal Enthalpies=           -1369.841698
 Sum of electronic and thermal Free Energies=        -1369.908906

                     E (Thermal)             CV                S
                      KCal/Mol        Cal/Mol-Kelvin    Cal/Mol-Kelvin
 Total                  144.658             62.905            141.451
 Electronic               0.000              0.000              0.000
 Translational            0.889              2.981             42.777
 Rotational               0.889              2.981             34.275
 Vibrational            142.880             56.944             64.399
 Vibration     1          0.593              1.987              7.514
 Vibration     2          0.593              1.985              6.103
 Vibration     3          0.596              1.977              4.718
 Vibration     4          0.597              1.973              4.421
 Vibration     5          0.598              1.968              4.123
 Vibration     6          0.600              1.961              3.827
 Vibration     7          0.608              1.936              3.161
 Vibration     8          0.610              1.930              3.057
 Vibration     9          0.618              1.903              2.678
 Vibration    10          0.623              1.888              2.520
 Vibration    11          0.628              1.871              2.362
 Vibration    12          0.653              1.791              1.859
 Vibration    13          0.660              1.772              1.770
 Vibration    14          0.668              1.746              1.661
 Vibration    15          0.697              1.662              1.383
 Vibration    16          0.702              1.645              1.335
 Vibration    17          0.722              1.591              1.201
 Vibration    18          0.727              1.577              1.169
 Vibration    19          0.760              1.487              0.992
 Vibration    20          0.774              1.449              0.928
 Vibration    21          0.818              1.339              0.766
 Vibration    22          0.822              1.328              0.752
 Vibration    23          0.859              1.242              0.650
 Vibration    24          0.896              1.160              0.563
 Vibration    25          0.906              1.137              0.542
 Vibration    26          0.954              1.039              0.456

 Optimization completed.
    -- Stationary point found.
 Normal termination of Gaussian 09 at Wed Feb 27 12:50:07 2019.
