 Gaussian 09, Revision E.01,

 ----------------------------------------------------------------------
 # M062X/Gen 6D SCF=Tight INT(grid=ultrafine) OPT IOP(2/17=4) maxdisk=2
 147483648
 ----------------------------------------------------------------------

 ------------------
 bfcgm_longer.M062X
 ------------------
 Symbolic Z-matrix:
 Charge =  0 Multiplicity = 1

 SCF Done:  E(RM062X) =  -1370.51959152     A.U. after   16 cycles
 SCF Done:  E(RM062X) =  -1370.53273334     A.U. after   14 cycles
 SCF Done:  E(RM062X) =  -1370.53318474     A.U. after   14 cycles
 SCF Done:  E(RM062X) =  -1370.53346487     A.U. after   12 cycles
 SCF Done:  E(RM062X) =  -1370.53347731     A.U. after   11 cycles
 SCF Done:  E(RM062X) =  -1370.53347962     A.U. after   10 cycles
 SCF Done:  E(RM062X) =  -1370.53347973     A.U. after    9 cycles
 SCF Done:  E(RM062X) =  -1370.53347984     A.U. after    9 cycles
 SCF Done:  E(RM062X) =  -1370.53347988     A.U. after    9 cycles
 SCF Done:  E(RM062X) =  -1370.53347992     A.U. after    9 cycles
 SCF Done:  E(RM062X) =  -1370.53397912     A.U. after   12 cycles
 SCF Done:  E(RM062X) =  -1370.53398276     A.U. after   12 cycles
 SCF Done:  E(RM062X) =  -1370.53398556     A.U. after   12 cycles
 SCF Done:  E(RM062X) =  -1370.53398886     A.U. after   12 cycles
 SCF Done:  E(RM062X) =  -1370.53398974     A.U. after   11 cycles
 SCF Done:  E(RM062X) =  -1370.53399052     A.U. after   11 cycles
 SCF Done:  E(RM062X) =  -1370.53399076     A.U. after   10 cycles
 SCF Done:  E(RM062X) =  -1370.53399085     A.U. after   10 cycles
 SCF Done:  E(RM062X) =  -1370.53399088     A.U. after   10 cycles
 Optimization completed.
    -- Stationary point found.
 Normal termination of Gaussian 09 at Tue May 22 12:25:09 2018.
 Gaussian 09:  ES64L-G09RevE.01 30-Nov-2015

 ----------------------------------------------------------------------
 # M062X/Gen 6D SCF=Tight INT(grid=ultrafine) Freq=Noraman geom=check g
 uess=read IOP(2/17=4) maxdisk=2147483648
 ----------------------------------------------------------------------

 ------------------
 bfcgm_longer.M062X
 ------------------
 Structure from the checkpoint file:  "bfcgm_longer.M062X.chk"
 Charge =  0 Multiplicity = 1

                         Standard orientation:
 ---------------------------------------------------------------------
 Center     Atomic      Atomic             Coordinates (Angstroms)
 Number     Number       Type             X           Y           Z
 ---------------------------------------------------------------------
      1          6           0        2.534153   -1.070575   -0.012799
      2          6           0        2.255399    0.298206   -0.004641
      3          6           0        0.934272    0.728881   -0.018241
      4          6           0       -0.126721   -0.183654   -0.041148
      5          6           0        0.158864   -1.554369   -0.048066
      6          6           0        1.483157   -1.979651   -0.034479
      7          7           0       -1.423186    0.346644   -0.074525
      8          1           0       -1.477871    1.355098   -0.019444
      9          6           0       -2.620415   -0.352166    0.015471
     10          8           0       -2.690473   -1.559785    0.166359
     11          7           0       -3.729744    0.456724   -0.050856
     12          1           0       -3.637326    1.351074   -0.516897
     13          6           0       -5.049439   -0.160359   -0.104306
     14         17           0        4.165000   -1.671847    0.003013
     15          6           0        3.361191    1.324120    0.018801
     16          9           0        2.871094    2.578162    0.023235
     17          9           0        4.134606    1.206885    1.108768
     18          9           0        4.162633    1.225824   -1.052882
     19          1           0        0.732347    1.795762   -0.013088
     20          1           0       -0.646427   -2.275353   -0.057389
     21          1           0        1.705986   -3.041544   -0.039201
     22          1           0       -5.191243   -0.692903   -1.055624
     23          1           0       -5.092525   -0.909138    0.691146
     24          6           0       -6.137034    0.888768    0.087009
     25          1           0       -5.980092    1.393453    1.047609
     26          1           0       -6.050447    1.655746   -0.695390
     27          6           0       -7.530516    0.266256    0.037045
     28          1           0       -7.650220   -0.486888    0.822930
     29          1           0       -7.708872   -0.223576   -0.926112
     30          1           0       -8.306474    1.023792    0.177068
 ---------------------------------------------------------------------

 SCF Done:  E(RM062X) =  -1370.53399088     A.U. after    2 cycles

 The electronic state is 1-A.
 Alpha  occ. eigenvalues -- -102.67940 -25.30690 -25.30039 -25.30033 -19.62913
 Alpha  occ. eigenvalues --  -14.82317 -14.80306 -10.81870 -10.70289 -10.63298
 Alpha  occ. eigenvalues --  -10.62941 -10.60297 -10.59425 -10.58909 -10.58186
 Alpha  occ. eigenvalues --  -10.57415 -10.56569 -10.55226  -9.82585  -7.55001
 Alpha  occ. eigenvalues --   -7.54315  -7.54300  -1.47071  -1.37813  -1.37453
 Alpha  occ. eigenvalues --   -1.19654  -1.08048  -1.04783  -1.01446  -0.95057
 Alpha  occ. eigenvalues --   -0.90567  -0.89757  -0.85389  -0.81358  -0.79132
 Alpha  occ. eigenvalues --   -0.74619  -0.72780  -0.70730  -0.70247  -0.69262
 Alpha  occ. eigenvalues --   -0.69086  -0.65882  -0.65288  -0.60216  -0.57965
 Alpha  occ. eigenvalues --   -0.57590  -0.57479  -0.57121  -0.55559  -0.55054
 Alpha  occ. eigenvalues --   -0.53893  -0.53333  -0.53215  -0.51722  -0.51632
 Alpha  occ. eigenvalues --   -0.51195  -0.49596  -0.49096  -0.48237  -0.47049
 Alpha  occ. eigenvalues --   -0.46080  -0.44467  -0.44123  -0.43294  -0.42070
 Alpha  occ. eigenvalues --   -0.41402  -0.38459  -0.37610  -0.36304  -0.34161
 Alpha  occ. eigenvalues --   -0.33561  -0.28408
 Alpha virt. eigenvalues --   -0.01272  -0.01165  -0.00283   0.01864   0.02243
 Alpha virt. eigenvalues --    0.02759   0.03119   0.03464   0.03912   0.04830
 Alpha virt. eigenvalues --    0.05090   0.05576   0.06312   0.06618   0.06846

 Mulliken charges:
               1
     1  C    0.682791
     2  C   -1.710971
     3  C   -1.022261
     4  C   -0.500719
     5  C    1.151036
     6  C   -0.551557
     7  N   -0.655372
     8  H    0.413657
     9  C    0.883177
    10  O   -0.572929
    11  N   -0.572527
    12  H    0.385283
    13  C   -0.169317
    14  Cl   0.264215
    15  C    1.571101
    16  F   -0.340450
    17  F   -0.248933
    18  F   -0.250745
    19  H    0.224150
    20  H    0.282117
    21  H    0.237438
    22  H    0.216422
    23  H    0.243606
    24  C   -0.318917
    25  H    0.227833
    26  H    0.202911
    27  C   -0.717257
    28  H    0.216019
    29  H    0.214684
    30  H    0.215516
 Sum of Mulliken charges =  -0.00000

 Dipole moment (field-independent basis, Debye):
    X=             -5.4108    Y=              2.4212    Z=             -0.8542  Tot=              5.9890
 Quadrupole moment (field-independent basis, Debye-Ang):
   XX=           -110.1561   YY=           -110.0322   ZZ=           -114.7442
   XY=            -13.7659   XZ=              2.7633   YZ=             -0.5767

  Exact polarizability: 236.969 -11.910 153.587   0.929  -0.461 100.021
 Approx polarizability: 230.764 -10.431 204.027   0.946  -1.569 130.478

                      1                      2                      3
                      A                      A                      A
 Frequencies --     18.1907                25.5902                44.7292
 Red. masses --      5.5571                 2.8939                10.3783
 Frc consts  --      0.0011                 0.0011                 0.0122
 IR Inten    --      1.0384                 4.9687                 0.4235

                      4                      5                      6
                      A                      A                      A
 Frequencies --     56.3721                61.6431                75.8734
 Red. masses --      4.3894                 4.4829                 2.6966
 Frc consts  --      0.0082                 0.0100                 0.0091
 IR Inten    --      0.9322                 4.4658                 1.4322

                      7                      8                      9
                      A                      A                      A
 Frequencies --    113.2186               131.7524               142.2648
 Red. masses --      5.2530                 6.6621                 7.9126
 Frc consts  --      0.0397                 0.0681                 0.0944
 IR Inten    --      0.0853                 5.4371                 0.1127

                     10                     11                     12
                      A                      A                      A
 Frequencies --    162.7164               188.8334               213.1496
 Red. masses --      8.4903                 2.7807                 7.1637
 Frc consts  --      0.1324                 0.0584                 0.1918
 IR Inten    --      3.8522                 1.1379                 0.3001

                     13                     14                     15
                      A                      A                      A
 Frequencies --    241.4838               249.2412               307.1623
 Red. masses --      1.1347                 5.1970                 7.9705
 Frc consts  --      0.0390                 0.1902                 0.4431
 IR Inten    --      0.0146                 5.0359                 2.7224

                     16                     17                     18
                      A                      A                      A
 Frequencies --    308.8039               336.6555               351.1230
 Red. masses --      7.6296                 3.4410                 3.5718
 Frc consts  --      0.4287                 0.2298                 0.2595
 IR Inten    --      0.2161                41.6157                 9.8678

                     19                     20                     21
                      A                      A                      A
 Frequencies --    363.0105               366.8167               430.8189
 Red. masses --      7.3052                 1.9556                 4.5940
 Frc consts  --      0.5672                 0.1550                 0.5024
 IR Inten    --      4.2237                33.6437                16.7634

                     22                     23                     24
                      A                      A                      A
 Frequencies --    463.3006               465.5947               501.1834
 Red. masses --      4.5984                 4.9279                 1.3236
 Frc consts  --      0.5815                 0.6294                 0.1959
 IR Inten    --      0.5720                 0.2589               117.0345

                     25                     26                     27
                      A                      A                      A
 Frequencies --    534.3763               539.6734               599.5722
 Red. masses --      4.8962                 6.8081                 8.1300
 Frc consts  --      0.8238                 1.1682                 1.7220
 IR Inten    --     36.2863                14.7298                 6.9336

                     28                     29                     30
                      A                      A                      A
 Frequencies --    648.4827               670.8110               710.0688
 Red. masses --      5.0323                 8.3485                 6.5636
 Frc consts  --      1.2469                 2.2134                 1.9498
 IR Inten    --      1.3275                16.1362                 3.5196

                     31                     32                     33
                      A                      A                      A
 Frequencies --    740.5685               753.8867               762.5376
 Red. masses --      4.4060                 2.0185                 8.0701
 Frc consts  --      1.4237                 0.6759                 2.7647
 IR Inten    --      3.2342                 9.6457                 5.5141

                     34                     35                     36
                      A                      A                      A
 Frequencies --    767.6194               817.7013               867.2076
 Red. masses --      1.8619                 6.2975                 1.3788
 Frc consts  --      0.6464                 2.4809                 0.6109
 IR Inten    --      3.3465                 6.5140                30.3390

                     37                     38                     39
                      A                      A                      A
 Frequencies --    902.1484               903.8370               915.8143
 Red. masses --      1.1858                 1.5499                 2.7850
 Frc consts  --      0.5686                 0.7460                 1.3762
 IR Inten    --      3.3332                26.7563                 6.1678

                     40                     41                     42
                      A                      A                      A
 Frequencies --    945.4903              1003.9723              1049.5115
 Red. masses --      2.3614                 1.3181                 4.4756
 Frc consts  --      1.2438                 0.7828                 2.9045
 IR Inten    --      7.1964                 0.1039                19.4899

                     43                     44                     45
                      A                      A                      A
 Frequencies --   1052.2067              1082.6772              1149.1643
 Red. masses --      5.1038                 2.6475                 3.1775
 Frc consts  --      3.3293                 1.8285                 2.4723
 IR Inten    --     24.0265                15.4345                25.8686

                     46                     47                     48
                      A                      A                      A
 Frequencies --   1161.3758              1165.7676              1179.3726
 Red. masses --      2.4217                 2.4022                 1.5589
 Frc consts  --      1.9245                 1.9235                 1.2775
 IR Inten    --     63.5296                 1.7685                 8.4078

                     49                     50                     51
                      A                      A                      A
 Frequencies --   1181.9290              1232.1601              1237.3196
 Red. masses --      1.6777                12.9777                 2.6505
 Frc consts  --      1.3809                11.6086                 2.3908
 IR Inten    --      1.2007               263.2768               478.5944

                     52                     53                     54
                      A                      A                      A
 Frequencies --   1241.7179              1278.7426              1287.2967
 Red. masses --      2.3771                 1.8141                 1.6551
 Frc consts  --      2.1594                 1.7477                 1.6159
 IR Inten    --     40.8752                47.4869               164.8620

                     55                     56                     57
                      A                      A                      A
 Frequencies --   1300.8825              1326.9965              1343.0698
 Red. masses --      1.6251                 1.1504                 1.7579
 Frc consts  --      1.6203                 1.1935                 1.8682
 IR Inten    --     18.2733                23.5857                 9.2815

                     58                     59                     60
                      A                      A                      A
 Frequencies --   1352.3244              1374.7448              1425.1910
 Red. masses --      2.4100                 3.9901                 1.5226
 Frc consts  --      2.5968                 4.4430                 1.8222
 IR Inten    --     54.6731               328.0887                 0.7575

                     61                     62                     63
                      A                      A                      A
 Frequencies --   1438.3424              1458.3757              1516.5805
 Red. masses --      1.3175                 3.0372                 1.0600
 Frc consts  --      1.6060                 3.8060                 1.4365
 IR Inten    --      2.4059                 9.8752                 8.6600

                     64                     65                     66
                      A                      A                      A
 Frequencies --   1524.8658              1527.4314              1538.2540
 Red. masses --      1.0454                 1.0733                 1.1787
 Frc consts  --      1.4322                 1.4753                 1.6432
 IR Inten    --     14.9633                 3.0120                 4.0595

                     67                     68                     69
                      A                      A                      A
 Frequencies --   1545.8452              1549.6824              1590.6523
 Red. masses --      1.8647                 2.6793                 2.4164
 Frc consts  --      2.6253                 3.7910                 3.6022
 IR Inten    --    461.2426                64.5836               977.1254

                     70                     71                     72
                      A                      A                      A
 Frequencies --   1667.4067              1697.7527              1821.5361
 Red. masses --      5.7991                 6.6102                 8.6805
 Frc consts  --      9.4994                11.2258                16.9695
 IR Inten    --      6.8775                24.7754               263.3155

                     73                     74                     75
                      A                      A                      A
 Frequencies --   3056.2763              3058.9700              3080.6163
 Red. masses --      1.0691                 1.0671                 1.0364
 Frc consts  --      5.8837                 5.8833                 5.7949
 IR Inten    --     23.6309                36.9070                29.7794

                     76                     77                     78
                      A                      A                      A
 Frequencies --   3107.7186              3145.4397              3152.9952
 Red. masses --      1.0961                 1.0968                 1.1017
 Frc consts  --      6.2369                 6.3936                 6.4530
 IR Inten    --     15.2599                 0.9102                48.1230

                     79                     80                     81
                      A                      A                      A
 Frequencies --   3160.8484              3231.6189              3245.6320
 Red. masses --      1.1019                 1.0909                 1.0922
 Frc consts  --      6.4863                 6.7122                 6.7788
 IR Inten    --     27.6314                 4.7969                 0.5513

                     82                     83                     84
                      A                      A                      A
 Frequencies --   3304.3870              3621.0310              3640.6678
 Red. masses --      1.0926                 1.0773                 1.0771
 Frc consts  --      7.0288                 8.3227                 8.4114
 IR Inten    --     12.2220                21.9198                31.1659

 - Thermochemistry -
 -------------------
 Temperature   298.150 Kelvin.  Pressure   1.00000 Atm.
 Atom     1 has atomic number  6 and mass  12.00000

 Molecular mass:   280.05903 amu.
 Principal axes and moments of inertia in atomic units:
                           1         2         3
     Eigenvalues --  1904.90957********************
           X            0.99996  -0.00948   0.00026
           Y            0.00948   0.99995  -0.00047
           Z           -0.00026   0.00048   1.00000
 This molecule is an asymmetric top.
 Rotational symmetry number  1.
 Warning -- assumption of classical behavior for rotation
           may cause significant error
 Rotational temperatures (Kelvin)      0.04547     0.00613     0.00552
 Rotational constants (GHZ):           0.94742     0.12768     0.11510
 Zero-point vibrational energy     596988.4 (Joules/Mol)
                                  142.68366 (Kcal/Mol)
 Warning -- explicit consideration of  27 degrees of freedom as
           vibrations may cause significant error
 Vibrational temperatures:     26.17    36.82    64.36    81.11    88.69
          (Kelvin)            109.16   162.90   189.56   204.69   234.11
                              271.69   306.67   347.44   358.60   441.94
                              444.30   484.37   505.19   522.29   527.77
                              619.85   666.59   669.89   721.09   768.85
                              776.47   862.65   933.02   965.15  1021.63
                             1065.51  1084.67  1097.12  1104.43  1176.49
                             1247.72  1297.99  1300.42  1317.65  1360.35
                             1444.49  1510.01  1513.89  1557.73  1653.39
                             1670.96  1677.28  1696.85  1700.53  1772.80
                             1780.22  1786.55  1839.82  1852.13  1871.68
                             1909.25  1932.38  1945.69  1977.95  2050.53
                             2069.45  2098.27  2182.02  2193.94  2197.63
                             2213.20  2224.12  2229.64  2288.59  2399.02
                             2442.68  2620.78  4397.29  4401.17  4432.31
                             4471.31  4525.58  4536.45  4547.75  4649.57
                             4669.73  4754.27  5209.85  5238.10

 Zero-point correction=                           0.227381 (Hartree/Particle)
 Thermal correction to Energy=                    0.245306
 Thermal correction to Enthalpy=                  0.246250
 Thermal correction to Gibbs Free Energy=         0.178231
 Sum of electronic and zero-point Energies=          -1370.306610
 Sum of electronic and thermal Energies=             -1370.288685
 Sum of electronic and thermal Enthalpies=           -1370.287741
 Sum of electronic and thermal Free Energies=        -1370.355760

                     E (Thermal)             CV                S
                      KCal/Mol        Cal/Mol-Kelvin    Cal/Mol-Kelvin
 Total                  153.932             64.366            143.159
 Electronic               0.000              0.000              0.000
 Translational            0.889              2.981             42.788
 Rotational               0.889              2.981             34.400
 Vibrational            152.154             58.405             65.971
 Vibration     1          0.593              1.986              6.823
 Vibration     2          0.593              1.985              6.145
 Vibration     3          0.595              1.980              5.038
 Vibration     4          0.596              1.975              4.580
 Vibration     5          0.597              1.973              4.404
 Vibration     6          0.599              1.965              3.995
 Vibration     7          0.607              1.939              3.213
 Vibration     8          0.612              1.922              2.920
 Vibration     9          0.616              1.911              2.773
 Vibration    10          0.623              1.888              2.518
 Vibration    11          0.633              1.855              2.239
 Vibration    12          0.644              1.821              2.017
 Vibration    13          0.658              1.777              1.792
 Vibration    14          0.662              1.764              1.736
 Vibration    15          0.697              1.660              1.378
 Vibration    16          0.698              1.657              1.369
 Vibration    17          0.717              1.602              1.228
 Vibration    18          0.728              1.573              1.161
 Vibration    19          0.737              1.548              1.109
 Vibration    20          0.740              1.541              1.093
 Vibration    21          0.792              1.403              0.856
 Vibration    22          0.821              1.331              0.757
 Vibration    23          0.823              1.326              0.750
 Vibration    24          0.857              1.247              0.655
 Vibration    25          0.889              1.174              0.578
 Vibration    26          0.895              1.162              0.566
 Vibration    27          0.958              1.033              0.450

 Optimization completed.
    -- Stationary point found.
 Normal termination of Gaussian 09 at Tue May 22 13:18:59 2018.
