 Gaussian 09, Revision E.01,

 ----------------------------------------------------------------------
 # M062X/Gen 6D SCF=Tight INT(grid=ultrafine) OPT IOP(2/17=4) Freq=Nora
 man SCRF=(SMD,Solvent=h2o) maxdisk=2147483648
 ----------------------------------------------------------------------

 ------------------------------------
 aryl_urea_nitro_a1.M062X.SMD.h2o.opt
 ------------------------------------
 Symbolic Z-matrix:
 Charge = -1 Multiplicity = 1

 SCF Done:  E(RM062X) =  -777.957353723     A.U. after   17 cycles
 SCF Done:  E(RM062X) =  -777.993424737     A.U. after   15 cycles
 SCF Done:  E(RM062X) =  -777.996573342     A.U. after   17 cycles
 SCF Done:  E(RM062X) =  -777.998512352     A.U. after   14 cycles
 SCF Done:  E(RM062X) =  -777.998896894     A.U. after   14 cycles
 SCF Done:  E(RM062X) =  -777.998785687     A.U. after   14 cycles
 SCF Done:  E(RM062X) =  -777.998923762     A.U. after   13 cycles
 SCF Done:  E(RM062X) =  -777.998929960     A.U. after   13 cycles
 SCF Done:  E(RM062X) =  -777.998957071     A.U. after   13 cycles
 SCF Done:  E(RM062X) =  -777.991216616     A.U. after   17 cycles
 SCF Done:  E(RM062X) =  -777.999695983     A.U. after   14 cycles
 SCF Done:  E(RM062X) =  -777.999760729     A.U. after   14 cycles
 SCF Done:  E(RM062X) =  -777.999760426     A.U. after   13 cycles
 SCF Done:  E(RM062X) =  -777.999762622     A.U. after   13 cycles
 SCF Done:  E(RM062X) =  -777.999763208     A.U. after   13 cycles
 SCF Done:  E(RM062X) =  -777.999763722     A.U. after   11 cycles
 SCF Done:  E(RM062X) =  -777.999763788     A.U. after   10 cycles
 Optimization completed.
    -- Stationary point found.
 Normal termination of Gaussian 09 at Tue Jul 10 15:37:31 2018.

 ----------------------------------------------------------------------
 #N Geom=AllCheck Guess=TCheck SCRF=Check Test GenChk RM062X/ChkBas Fre
 q
 ----------------------------------------------------------------------

 Structure from the checkpoint file:  "aryl_urea_nitro_a1.M062X.SMD.h2o.opt.chk"
 ------------------------------------
 aryl_urea_nitro_a1.M062X.SMD.h2o.opt
 ------------------------------------
 Charge = -1 Multiplicity = 1

 SCF Done:  E(RM062X) =  -777.999763788     A.U. after    1 cycles
 Normal termination of Gaussian 09 at Tue Jul 10 16:09:37 2018.
 Gaussian 09:  ES64L-G09RevE.01 30-Nov-2015

 ----------------------------------------------------------------------
 # M062X/Gen 6D SCF=Tight INT(grid=ultrafine) OPT IOP(2/17=4) Freq=Nora
 man SCRF=(SMD,Solvent=h2o) geom=check guess=read IOP(2/17=4) maxdisk=2
 147483648
 ----------------------------------------------------------------------

 ------------------------------------
 aryl_urea_nitro_a1.M062X.SMD.h2o.opt
 ------------------------------------
 Structure from the checkpoint file:  "aryl_urea_nitro_a1.M062X.SMD.h2o.opt.chk"
 Charge = -1 Multiplicity = 1

 SCF Done:  E(RM062X) =  -777.999763788     A.U. after    1 cycles
 Optimization completed.
    -- Stationary point found.
 Normal termination of Gaussian 09 at Tue Jul 10 16:10:31 2018.

 ----------------------------------------------------------------------
 #N Geom=AllCheck Guess=TCheck SCRF=Check Test GenChk RM062X/ChkBas Fre
 q
 ----------------------------------------------------------------------

 Structure from the checkpoint file:  "aryl_urea_nitro_a1.M062X.SMD.h2o.opt.chk"
 ------------------------------------
 aryl_urea_nitro_a1.M062X.SMD.h2o.opt
 ------------------------------------
 Charge = -1 Multiplicity = 1

                         Standard orientation:
 ---------------------------------------------------------------------
 Center     Atomic      Atomic             Coordinates (Angstroms)
 Number     Number       Type             X           Y           Z
 ---------------------------------------------------------------------
      1          6           0       -3.278229   -0.000167    0.049556
      2          6           0       -2.818341    1.319005   -0.132272
      3          6           0       -1.469402    1.562776   -0.169182
      4          6           0       -0.495467    0.517363   -0.042323
      5          6           0       -1.008618   -0.809473    0.152909
      6          6           0       -2.360290   -1.055263    0.201253
      7          7           0        0.798335    0.882246   -0.048398
      8          6           0        1.789650   -0.041117   -0.220456
      9          7           0        3.008266    0.366538    0.243324
     10          8           0        1.693117   -1.160257   -0.786075
     11          6           0        4.234303   -0.323197   -0.127969
     12          6           0        5.446224    0.386751    0.457355
     13          6           0        6.743144   -0.315859    0.068439
     14          1           0       -1.107647    2.577705   -0.304637
     15          1           0       -0.318615   -1.632397    0.285091
     16          1           0        3.082289    1.339122    0.517549
     17          1           0        4.325525   -0.375507   -1.222348
     18          1           0        4.193618   -1.353884    0.241222
     19          1           0        5.351454    0.422149    1.549537
     20          1           0        5.463184    1.424856    0.101616
     21          1           0        6.750871   -1.350507    0.429067
     22          1           0        7.611613    0.195371    0.494582
     23          1           0        6.865658   -0.337872   -1.020154
     24          1           0       -3.528257    2.131197   -0.243230
     25          1           0       -2.723213   -2.064432    0.363794
     26          7           0       -4.663281   -0.263493    0.088486
     27          8           0       -5.060022   -1.429009    0.238679
     28          8           0       -5.466540    0.674548   -0.027583
 ---------------------------------------------------------------------

 SCF Done:  E(RM062X) =  -777.999763788     A.U. after    1 cycles

 The electronic state is 1-A.
 Alpha  occ. eigenvalues --  -19.67490 -19.67481 -19.60451 -15.00770 -14.76745
 Alpha  occ. eigenvalues --  -14.72604 -10.66025 -10.60021 -10.59197 -10.56838
 Alpha  occ. eigenvalues --  -10.56810 -10.56732 -10.54742 -10.54694 -10.53814
 Alpha  occ. eigenvalues --  -10.52776  -1.35310  -1.16324  -1.15134  -1.02086
 Alpha  occ. eigenvalues --   -1.00422  -0.96772  -0.88877  -0.86837  -0.85269
 Alpha  occ. eigenvalues --   -0.78843  -0.75023  -0.70019  -0.68094  -0.67279
 Alpha  occ. eigenvalues --   -0.64254  -0.63830  -0.61666  -0.60431  -0.59134
 Alpha  occ. eigenvalues --   -0.54794  -0.54328  -0.52535  -0.51568  -0.50704
 Alpha  occ. eigenvalues --   -0.49536  -0.48849  -0.46953  -0.46036  -0.45353
 Alpha  occ. eigenvalues --   -0.43751  -0.41722  -0.40817  -0.39826  -0.39372
 Alpha  occ. eigenvalues --   -0.38860  -0.38259  -0.37622  -0.37186  -0.35261
 Alpha  occ. eigenvalues --   -0.32077  -0.31178  -0.30475  -0.24210
 Alpha virt. eigenvalues --   -0.05761   0.02072   0.02369   0.03277   0.03877
 Alpha virt. eigenvalues --    0.04174   0.04346   0.04796   0.05039   0.05670
 Alpha virt. eigenvalues --    0.06492   0.06882   0.07096   0.08108   0.08710

 Mulliken charges:
               1
     1  C   -0.239330
     2  C    0.030085
     3  C   -1.037159
     4  C    0.565523
     5  C    0.419446
     6  C   -0.564307
     7  N   -0.567077
     8  C    0.872336
     9  N   -0.632259
    10  O   -0.804746
    11  C   -0.339434
    12  C   -0.361459
    13  C   -0.748393
    14  H    0.242776
    15  H    0.247980
    16  H    0.456096
    17  H    0.219967
    18  H    0.227595
    19  H    0.230723
    20  H    0.227391
    21  H    0.220570
    22  H    0.221444
    23  H    0.220850
    24  H    0.269702
    25  H    0.269427
    26  N   -0.237048
    27  O   -0.203666
    28  O   -0.207035
 Sum of Mulliken charges =  -1.00000

 Dipole moment (field-independent basis, Debye):
    X=             11.3774    Y=              3.1672    Z=              2.0382  Tot=             11.9846
 Quadrupole moment (field-independent basis, Debye-Ang):
   XX=           -159.9994   YY=           -102.0343   ZZ=           -101.4872
   XY=              0.3752   XZ=              5.4988   YZ=             -3.4353

  Exact polarizability: 519.478  24.741 232.956  -5.635  -2.859 145.070
 Approx polarizability: 346.504  17.068 201.401  -1.396  -2.524 126.466

                      1                      2                      3
                      A                      A                      A
 Frequencies --     18.8081                37.6645                57.1731
 Red. masses --      5.5323                 4.9887                 2.4484
 Frc consts  --      0.0012                 0.0042                 0.0047
 IR Inten    --      8.1309                 2.0870                 4.1544

                      4                      5                      6
                      A                      A                      A
 Frequencies --     69.8356                79.4750                87.2757
 Red. masses --      2.7990                 6.8590                 5.5005
 Frc consts  --      0.0080                 0.0255                 0.0247
 IR Inten    --     24.6248                 1.0589                11.8356

                      7                      8                      9
                      A                      A                      A
 Frequencies --    125.1665               170.0701               175.9240
 Red. masses --      4.1930                 5.3632                 3.8625
 Frc consts  --      0.0387                 0.0914                 0.0704
 IR Inten    --     25.9761                13.1604                10.9763

                     10                     11                     12
                      A                      A                      A
 Frequencies --    223.0237               243.1370               263.3320
 Red. masses --      6.6038                 1.1369                 5.1943
 Frc consts  --      0.1935                 0.0396                 0.2122
 IR Inten    --     18.8464                 0.6329                16.2633

                     13                     14                     15
                      A                      A                      A
 Frequencies --    284.5597               340.7219               378.4802
 Red. masses --      6.3359                 4.1239                 5.0119
 Frc consts  --      0.3023                 0.2821                 0.4230
 IR Inten    --      8.4715                30.3599                28.7148

                     16                     17                     18
                      A                      A                      A
 Frequencies --    416.1415               427.5190               434.6029
 Red. masses --      6.8726                 3.0784                 1.2595
 Frc consts  --      0.7012                 0.3315                 0.1402
 IR Inten    --      7.1370                 5.9680               284.3636

                     19                     20                     21
                      A                      A                      A
 Frequencies --    490.6583               529.3402               552.3136
 Red. masses --      2.7022                 3.9904                 7.3250
 Frc consts  --      0.3833                 0.6588                 1.3165
 IR Inten    --     55.8687                40.8431                 8.0941

                     22                     23                     24
                      A                      A                      A
 Frequencies --    629.2984               679.5087               705.8469
 Red. masses --      7.1896                 7.3457                 3.5543
 Frc consts  --      1.6775                 1.9983                 1.0433
 IR Inten    --      6.4025               149.3209                38.1528

                     25                     26                     27
                      A                      A                      A
 Frequencies --    751.4463               761.6487               775.8257
 Red. masses --      5.0529                 1.1670                 9.6096
 Frc consts  --      1.6811                 0.3989                 3.4079
 IR Inten    --    517.6775                40.5568               201.8962

                     28                     29                     30
                      A                      A                      A
 Frequencies --    803.5629               818.8914               842.0739
 Red. masses --      6.7031                 1.2949                 4.0740
 Frc consts  --      2.5501                 0.5116                 1.7020
 IR Inten    --    105.6204               148.3146               269.3954

                     31                     32                     33
                      A                      A                      A
 Frequencies --    863.0028               879.3840               906.0025
 Red. masses --      3.2886                 4.6934                 1.1526
 Frc consts  --      1.4431                 2.1384                 0.5574
 IR Inten    --    155.4077               120.0330                29.1949

                     34                     35                     36
                      A                      A                      A
 Frequencies --    932.4624               997.4607              1003.8448
 Red. masses --      1.6542                 1.2709                 2.3441
 Frc consts  --      0.8474                 0.7450                 1.3918
 IR Inten    --     12.5056                 0.8406               418.0932

                     37                     38                     39
                      A                      A                      A
 Frequencies --   1007.0322              1035.5404              1079.1671
 Red. masses --      1.4739                 5.0169                 2.5285
 Frc consts  --      0.8807                 3.1697                 1.7349
 IR Inten    --     62.9053               278.1593              1596.2318

                     40                     41                     42
                      A                      A                      A
 Frequencies --   1093.3427              1139.6243              1146.0965
 Red. masses --      2.3840                 1.4660                 1.7223
 Frc consts  --      1.6791                 1.1217                 1.3329
 IR Inten    --   7658.7785               102.6898                82.4869

                     43                     44                     45
                      A                      A                      A
 Frequencies --   1173.8770              1185.3437              1221.0306
 Red. masses --      1.8941                 2.8363                 3.0482
 Frc consts  --      1.5378                 2.3479                 2.6776
 IR Inten    --      8.7803                 4.1906               322.6048

                     46                     47                     48
                      A                      A                      A
 Frequencies --   1229.9856              1272.7994              1298.0166
 Red. masses --      1.7499                 1.2717                 1.7552
 Frc consts  --      1.5598                 1.2138                 1.7423
 IR Inten    --   4501.0855               393.5737              1310.2072

                     49                     50                     51
                      A                      A                      A
 Frequencies --   1314.2365              1324.4109              1345.1552
 Red. masses --      1.3857                 1.0817                 1.5138
 Frc consts  --      1.4102                 1.1179                 1.6139
 IR Inten    --     36.6260                10.2596                30.5218

                     52                     53                     54
                      A                      A                      A
 Frequencies --   1365.8805              1415.4249              1424.0903
 Red. masses --      4.6465                 1.6263                 1.4876
 Frc consts  --      5.1074                 1.9197                 1.7775
 IR Inten    --     54.9351                12.9800                 7.8095

                     55                     56                     57
                      A                      A                      A
 Frequencies --   1442.7962              1491.2821              1493.2352
 Red. masses --      2.6925                 1.0771                 9.1432
 Frc consts  --      3.3023                 1.4113                12.0117
 IR Inten    --    151.3236                49.3449               706.5315

                     58                     59                     60
                      A                      A                      A
 Frequencies --   1503.3738              1507.2603              1519.2284
 Red. masses --      1.0404                 1.4490                 1.5099
 Frc consts  --      1.3855                 1.9395                 2.0533
 IR Inten    --     12.1469               517.6847               633.2168

                     61                     62                     63
                      A                      A                      A
 Frequencies --   1530.6684              1533.1266              1553.2877
 Red. masses --      2.7560                 1.4927                 4.2836
 Frc consts  --      3.8044                 2.0672                 6.0892
 IR Inten    --    360.6236                44.9036               283.6872

                     64                     65                     66
                      A                      A                      A
 Frequencies --   1581.6748              1613.4873              1677.8264
 Red. masses --      5.4881                 7.7885                 6.7217
 Frc consts  --      8.0892                11.9464                11.1486
 IR Inten    --    447.6674               325.7556               363.3292

                     67                     68                     69
                      A                      A                      A
 Frequencies --   3052.8573              3070.8602              3076.3149
 Red. masses --      1.0670                 1.0612                 1.0363
 Frc consts  --      5.8589                 5.8960                 5.7785
 IR Inten    --     71.3037                56.3250                45.7548

                     70                     71                     72
                      A                      A                      A
 Frequencies --   3101.8787              3118.7674              3145.3459
 Red. masses --      1.0963                 1.1027                 1.1036
 Frc consts  --      6.2151                 6.3196                 6.4330
 IR Inten    --     12.2032                70.7310                93.7059

                     73                     74                     75
                      A                      A                      A
 Frequencies --   3154.4703              3236.3624              3258.4382
 Red. masses --      1.1023                 1.0905                 1.0908
 Frc consts  --      6.4624                 6.7298                 6.8237
 IR Inten    --     51.7154                10.4015                 0.4274

                     76                     77                     78
                      A                      A                      A
 Frequencies --   3264.5432              3280.7052              3623.1080
 Red. masses --      1.0945                 1.0933                 1.0783
 Frc consts  --      6.8725                 6.9333                 8.3397
 IR Inten    --      2.5750                 0.8590               122.2336

 - Thermochemistry -
 -------------------
 Temperature   298.150 Kelvin.  Pressure   1.00000 Atm.
 Atom     1 has atomic number  6 and mass  12.00000

 Molecular mass:   222.08787 amu.
 Principal axes and moments of inertia in atomic units:
                           1         2         3
     Eigenvalues --   724.75932********************
           X            1.00000  -0.00239   0.00197
           Y            0.00240   0.99998  -0.00654
           Z           -0.00195   0.00654   0.99998
 This molecule is an asymmetric top.
 Rotational symmetry number  1.
 Warning -- assumption of classical behavior for rotation
           may cause significant error
 Rotational temperatures (Kelvin)      0.11951     0.00769     0.00732
 Rotational constants (GHZ):           2.49012     0.16013     0.15251
 Zero-point vibrational energy     578139.9 (Joules/Mol)
                                  138.17874 (Kcal/Mol)
 Warning -- explicit consideration of  21 degrees of freedom as
           vibrations may cause significant error
 Vibrational temperatures:     27.06    54.19    82.26   100.48   114.35
          (Kelvin)            125.57   180.09   244.69   253.12   320.88
                              349.82   378.88   409.42   490.22   544.55
                              598.73   615.10   625.30   705.95   761.60
                              794.66   905.42   977.66  1015.56  1081.16
                             1095.84  1116.24  1156.15  1178.20  1211.55
                             1241.67  1265.24  1303.53  1341.60  1435.12
                             1444.31  1448.89  1489.91  1552.68  1573.07
                             1639.66  1648.98  1688.95  1705.44  1756.79
                             1769.67  1831.27  1867.55  1890.89  1905.53
                             1935.38  1965.19  2036.48  2048.95  2075.86
                             2145.62  2148.43  2163.02  2168.61  2185.83
                             2202.29  2205.82  2234.83  2275.67  2321.45
                             2414.01  4392.38  4418.28  4426.13  4462.91
                             4487.20  4525.45  4538.57  4656.40  4688.16
                             4696.94  4720.20  5212.84

 Zero-point correction=                           0.220202 (Hartree/Particle)
 Thermal correction to Energy=                    0.235466
 Thermal correction to Enthalpy=                  0.236410
 Thermal correction to Gibbs Free Energy=         0.175198
 Sum of electronic and zero-point Energies=           -777.779562
 Sum of electronic and thermal Energies=              -777.764298
 Sum of electronic and thermal Enthalpies=            -777.763354
 Sum of electronic and thermal Free Energies=         -777.824566

                     E (Thermal)             CV                S
                      KCal/Mol        Cal/Mol-Kelvin    Cal/Mol-Kelvin
 Total                  147.757             55.305            128.831
 Electronic               0.000              0.000              0.000
 Translational            0.889              2.981             42.096
 Rotational               0.889              2.981             32.936
 Vibrational            145.980             49.343             53.799
 Vibration     1          0.593              1.986              6.756
 Vibration     2          0.594              1.982              5.378
 Vibration     3          0.596              1.975              4.552
 Vibration     4          0.598              1.969              4.158
 Vibration     5          0.600              1.963              3.904
 Vibration     6          0.601              1.958              3.720
 Vibration     7          0.610              1.928              3.019
 Vibration     8          0.625              1.879              2.435
 Vibration     9          0.628              1.872              2.371
 Vibration    10          0.649              1.806              1.934
 Vibration    11          0.659              1.774              1.780
 Vibration    12          0.670              1.740              1.640
 Vibration    13          0.683              1.702              1.506
 Vibration    14          0.720              1.594              1.209
 Vibration    15          0.749              1.516              1.045
 Vibration    16          0.779              1.435              0.905
 Vibration    17          0.789              1.410              0.867
 Vibration    18          0.795              1.395              0.844
 Vibration    19          0.846              1.271              0.682
 Vibration    20          0.884              1.185              0.589
 Vibration    21          0.908              1.135              0.539

 Normal termination of Gaussian 09 at Tue Jul 10 16:42:04 2018.
