 Gaussian 09, Revision E.01,

 ----------------------------------------------------------------------
 # M062X/Gen 6D NoSymm SCF=Tight INT(grid=ultrafine) OPT IOP(2/17=4) ma
 xdisk=2147483648
 ----------------------------------------------------------------------

 ------------------------
 aryl_urea_nitro_a1.M062X
 ------------------------
 Symbolic Z-matrix:
 Charge = -1 Multiplicity = 1

 SCF Done:  E(RM062X) =  -777.914476607     A.U. after   17 cycles
 SCF Done:  E(RM062X) =  -777.916806142     A.U. after   16 cycles
 SCF Done:  E(RM062X) =  -777.916916485     A.U. after   16 cycles
 SCF Done:  E(RM062X) =  -777.916118168     A.U. after   16 cycles
 SCF Done:  E(RM062X) =  -777.917339091     A.U. after   13 cycles
 SCF Done:  E(RM062X) =  -777.917778006     A.U. after   16 cycles
 SCF Done:  E(RM062X) =  -777.918037025     A.U. after   15 cycles
 SCF Done:  E(RM062X) =  -777.918156166     A.U. after   14 cycles
 SCF Done:  E(RM062X) =  -777.918119249     A.U. after   15 cycles
 SCF Done:  E(RM062X) =  -777.918239916     A.U. after   14 cycles
 SCF Done:  E(RM062X) =  -777.725085672     A.U. after   18 cycles
 SCF Done:  E(RM062X) =  -777.919932713     A.U. after   12 cycles
 SCF Done:  E(RM062X) =  -777.919949105     A.U. after   15 cycles
 SCF Done:  E(RM062X) =  -777.920045202     A.U. after   14 cycles
 SCF Done:  E(RM062X) =  -777.920078205     A.U. after   14 cycles
 SCF Done:  E(RM062X) =  -777.920090072     A.U. after   12 cycles
 SCF Done:  E(RM062X) =  -777.920093573     A.U. after   12 cycles
 SCF Done:  E(RM062X) =  -777.920094335     A.U. after   12 cycles
 SCF Done:  E(RM062X) =  -777.920094420     A.U. after   10 cycles
 Optimization completed.
    -- Stationary point found.
 Normal termination of Gaussian 09 at Thu Aug 30 12:00:38 2018.
 Gaussian 09:  ES64L-G09RevE.01 30-Nov-2015

 ----------------------------------------------------------------------
 # M062X/Gen 6D SCF=Tight INT(grid=ultrafine) Freq=Noraman geom=check g
 uess=read IOP(2/17=4) maxdisk=2147483648
 ----------------------------------------------------------------------

 ------------------------
 aryl_urea_nitro_a1.M062X
 ------------------------
 Structure from the checkpoint file:  "aryl_urea_nitro_a1.M062X.chk"
 Charge = -1 Multiplicity = 1

                         Standard orientation:
 ---------------------------------------------------------------------
 Center     Atomic      Atomic             Coordinates (Angstroms)
 Number     Number       Type             X           Y           Z
 ---------------------------------------------------------------------
      1          6           0       -3.152996   -0.067839    0.079581
      2          6           0       -2.740180    1.256087    0.312178
      3          6           0       -1.410149    1.577640    0.200671
      4          6           0       -0.403427    0.614402   -0.145579
      5          6           0       -0.869185   -0.725622   -0.375247
      6          6           0       -2.206247   -1.044808   -0.263321
      7          7           0        0.855968    1.080973   -0.218828
      8          6           0        1.904222    0.263579   -0.510542
      9          7           0        3.098306    0.990838   -0.593583
     10          8           0        1.940587   -0.961378   -0.709649
     11          6           0        4.361044    0.296040   -0.519496
     12          6           0        4.702613   -0.244012    0.872781
     13          6           0        6.026311   -1.005902    0.879243
     14          1           0       -1.071134    2.594795    0.374351
     15          1           0       -0.146971   -1.485780   -0.638070
     16          1           0        3.034033    1.912287   -0.181345
     17          1           0        5.153345    0.976759   -0.860906
     18          1           0        4.315295   -0.540603   -1.224637
     19          1           0        3.882739   -0.898679    1.188160
     20          1           0        4.743819    0.592411    1.583933
     21          1           0        5.982309   -1.861117    0.194996
     22          1           0        6.270876   -1.387709    1.876238
     23          1           0        6.854602   -0.363230    0.554529
     24          1           0       -3.481029    2.003105    0.575702
     25          1           0       -2.545425   -2.060240   -0.439682
     26          7           0       -4.531869   -0.413734    0.192201
     27          8           0       -4.874947   -1.580588   -0.016838
     28          8           0       -5.343306    0.466225    0.496061
 ---------------------------------------------------------------------

 SCF Done:  E(RM062X) =  -777.920099367     A.U. after    7 cycles

 The electronic state is 1-A.
 Alpha  occ. eigenvalues --  -19.54286 -19.54275 -19.46744 -14.87645 -14.64409
 Alpha  occ. eigenvalues --  -14.58938 -10.52514 -10.46976 -10.46764 -10.46407
 Alpha  occ. eigenvalues --  -10.45533 -10.44568 -10.44328 -10.44209 -10.42356
 Alpha  occ. eigenvalues --  -10.41641  -1.22354  -1.03469  -1.01955  -0.89641
 Alpha  occ. eigenvalues --   -0.87449  -0.83720  -0.78074  -0.74996  -0.72525
 Alpha  occ. eigenvalues --   -0.67860  -0.63509  -0.58529  -0.57233  -0.54629
 Alpha  occ. eigenvalues --   -0.51939  -0.50944  -0.48620  -0.48068  -0.46586
 Alpha  occ. eigenvalues --   -0.43429  -0.42565  -0.40245  -0.39644  -0.38637
 Alpha  occ. eigenvalues --   -0.37795  -0.36912  -0.36019  -0.34658  -0.33958
 Alpha  occ. eigenvalues --   -0.33216  -0.31811  -0.30726  -0.29640  -0.28025
 Alpha  occ. eigenvalues --   -0.26070  -0.24688  -0.24183  -0.23024  -0.22252
 Alpha  occ. eigenvalues --   -0.19236  -0.18505  -0.16825  -0.11083
 Alpha virt. eigenvalues --    0.07683   0.10122   0.11301   0.11757   0.12471
 Alpha virt. eigenvalues --    0.13544   0.14015   0.14609   0.14719   0.15364
 Alpha virt. eigenvalues --    0.15791   0.15905   0.16839   0.17238   0.17411

 Mulliken charges:
               1
     1  C   -0.174893
     2  C    0.112788
     3  C   -1.179264
     4  C    0.314673
     5  C    0.363604
     6  C   -0.265860
     7  N   -0.456750
     8  C    0.511472
     9  N   -0.551733
    10  O   -0.623691
    11  C   -0.242102
    12  C   -0.203769
    13  C   -0.763138
    14  H    0.190291
    15  H    0.256862
    16  H    0.398243
    17  H    0.176657
    18  H    0.237597
    19  H    0.243730
    20  H    0.189310
    21  H    0.209693
    22  H    0.194626
    23  H    0.191068
    24  H    0.223048
    25  H    0.225627
    26  N   -0.362736
    27  O   -0.102654
    28  O   -0.112700
 Sum of Mulliken charges =  -1.00000

 Dipole moment (field-independent basis, Debye):
    X=              7.1844    Y=              1.4549    Z=              1.2156  Tot=              7.4303
 Quadrupole moment (field-independent basis, Debye-Ang):
   XX=           -168.5175   YY=           -104.2826   ZZ=           -102.1477
   XY=             -2.4576   XZ=              6.2888   YZ=              0.3878

  Exact polarizability: 329.459  15.349 152.582 -16.159   7.869 102.525
 Approx polarizability: 333.423  22.725 210.739 -22.777  15.167 130.278

                      1                      2                      3
                      A                      A                      A
 Frequencies --     23.0956                31.2805                64.4329
 Red. masses --      4.9063                 4.6984                 3.9723
 Frc consts  --      0.0015                 0.0027                 0.0097
 IR Inten    --      1.7693                 0.7247                 2.9663

                      4                      5                      6
                      A                      A                      A
 Frequencies --     69.1308                87.1054                94.8558
 Red. masses --      7.3123                 6.1737                 1.9120
 Frc consts  --      0.0206                 0.0276                 0.0101
 IR Inten    --      5.1617                 0.5000                 1.3450

                      7                      8                      9
                      A                      A                      A
 Frequencies --    125.6964               163.3261               229.6976
 Red. masses --      4.8236                 8.2297                 1.8918
 Frc consts  --      0.0449                 0.1293                 0.0588
 IR Inten    --      0.9795                 3.1751                 2.4965

                     10                     11                     12
                      A                      A                      A
 Frequencies --    236.1533               247.6927               286.3002
 Red. masses --      2.1798                 3.5788                 4.9933
 Frc consts  --      0.0716                 0.1294                 0.2411
 IR Inten    --      4.2907                 1.4486                 3.5410

                     13                     14                     15
                      A                      A                      A
 Frequencies --    307.9604               324.6723               384.2141
 Red. masses --      4.1419                 3.2747                 6.1214
 Frc consts  --      0.2314                 0.2034                 0.5324
 IR Inten    --     19.6675                 5.0224                 1.8011

                     16                     17                     18
                      A                      A                      A
 Frequencies --    433.0259               435.8435               497.0349
 Red. masses --      6.2242                 3.4938                 2.8391
 Frc consts  --      0.6876                 0.3910                 0.4132
 IR Inten    --     13.4497                 1.9223                 7.5055

                     19                     20                     21
                      A                      A                      A
 Frequencies --    528.6588               543.3879               553.3209
 Red. masses --      2.3034                 2.5719                 3.6280
 Frc consts  --      0.3793                 0.4474                 0.6544
 IR Inten    --     93.2750                37.6567                38.2153

                     22                     23                     24
                      A                      A                      A
 Frequencies --    632.6941               685.3486               705.3881
 Red. masses --      6.4677                 5.2513                 3.4191
 Frc consts  --      1.5254                 1.4532                 1.0023
 IR Inten    --      4.7672                 9.7908                 8.9728

                     25                     26                     27
                      A                      A                      A
 Frequencies --    720.8487               775.5132               776.8759
 Red. masses --      1.5118                 3.5076                 2.7174
 Frc consts  --      0.4628                 1.2429                 0.9663
 IR Inten    --      4.8211                14.0962                32.5553

                     28                     29                     30
                      A                      A                      A
 Frequencies --    804.9014               835.2039               847.5875
 Red. masses --      6.2180                 1.3699                 6.0048
 Frc consts  --      2.3735                 0.5630                 2.5417
 IR Inten    --     22.8237                 2.1850                10.9715

                     31                     32                     33
                      A                      A                      A
 Frequencies --    876.1340               880.7212               891.2986
 Red. masses --      1.9234                 6.5180                 1.5829
 Frc consts  --      0.8699                 2.9788                 0.7409
 IR Inten    --     57.8040                10.7266                15.4003

                     34                     35                     36
                      A                      A                      A
 Frequencies --    903.5541               993.7560              1002.3957
 Red. masses --      1.6961                 1.2549                 3.1305
 Frc consts  --      0.8159                 0.7301                 1.8533
 IR Inten    --     20.5818                 0.2106                81.6025

                     37                     38                     39
                      A                      A                      A
 Frequencies --   1011.0852              1012.4576              1063.2084
 Red. masses --      1.3005                 2.8679                 2.6868
 Frc consts  --      0.7833                 1.7321                 1.7895
 IR Inten    --      1.5056                52.3495                 9.5041

                     40                     41                     42
                      A                      A                      A
 Frequencies --   1131.6453              1138.1521              1145.5590
 Red. masses --      2.1194                 1.2308                 1.7571
 Frc consts  --      1.5991                 0.9394                 1.3586
 IR Inten    --     23.6526                33.8886              1101.6558

                     43                     44                     45
                      A                      A                      A
 Frequencies --   1167.0355              1191.0405              1219.1906
 Red. masses --      1.8310                 2.8733                 1.8086
 Frc consts  --      1.4693                 2.4015                 1.5840
 IR Inten    --      8.5783                 2.1490                 6.6098

                     46                     47                     48
                      A                      A                      A
 Frequencies --   1252.5020              1292.7621              1312.7950
 Red. masses --      2.4170                 1.4530                 1.4176
 Frc consts  --      2.2340                 1.4307                 1.4395
 IR Inten    --    789.5262               326.2711                 8.9969

                     49                     50                     51
                      A                      A                      A
 Frequencies --   1332.3046              1347.4768              1361.4637
 Red. masses --      1.3738                 1.1624                 4.2254
 Frc consts  --      1.4367                 1.2435                 4.6146
 IR Inten    --     47.7870               430.1265               108.8756

                     52                     53                     54
                      A                      A                      A
 Frequencies --   1379.4054              1417.0606              1422.9805
 Red. masses --      5.0628                 1.5239                 1.3015
 Frc consts  --      5.6758                 1.8030                 1.5527
 IR Inten    --   3096.4485                14.3139                 7.3436

                     55                     56                     57
                      A                      A                      A
 Frequencies --   1447.6714              1486.2602              1510.7655
 Red. masses --      2.9223                 1.1630                 1.0822
 Frc consts  --      3.6084                 1.5136                 1.4553
 IR Inten    --     11.7033                38.9731                 5.6813

                     58                     59                     60
                      A                      A                      A
 Frequencies --   1513.7783              1514.7949              1524.1113
 Red. masses --      4.1547                 1.7492                 1.1216
 Frc consts  --      5.6094                 2.3648                 1.5350
 IR Inten    --    103.7949               371.7998                74.3753

                     61                     62                     63
                      A                      A                      A
 Frequencies --   1528.3991              1569.0147              1577.2564
 Red. masses --      1.0639                 5.0059                 7.1475
 Frc consts  --      1.4643                 7.2608                10.4764
 IR Inten    --      6.5977               258.2597               358.5264

                     64                     65                     66
                      A                      A                      A
 Frequencies --   1643.4953              1654.2283              1715.7900
 Red. masses --      9.0286                 7.1271                 7.9948
 Frc consts  --     14.3683                11.4910                13.8672
 IR Inten    --    201.5697               582.2548               202.0158

                     67                     68                     69
                      A                      A                      A
 Frequencies --   3053.8298              3059.7359              3060.3881
 Red. masses --      1.0654                 1.0449                 1.0612
 Frc consts  --      5.8539                 5.7634                 5.8559
 IR Inten    --     79.0889                95.9096                26.8553

                     70                     71                     72
                      A                      A                      A
 Frequencies --   3112.4618              3123.8437              3135.8313
 Red. masses --      1.0937                 1.0964                 1.1006
 Frc consts  --      6.2426                 6.3036                 6.3765
 IR Inten    --      9.8734                11.6424                40.3908

                     73                     74                     75
                      A                      A                      A
 Frequencies --   3139.8554              3224.6367              3246.3362
 Red. masses --      1.1032                 1.0886                 1.0904
 Frc consts  --      6.4082                 6.6695                 6.7707
 IR Inten    --     62.1539                10.6897                 1.8166

                     76                     77                     78
                      A                      A                      A
 Frequencies --   3251.9751              3292.3535              3644.2634
 Red. masses --      1.0939                 1.0920                 1.0767
 Frc consts  --      6.8157                 6.9740                 8.4247
 IR Inten    --      5.7098                 2.6787                16.0878

 - Thermochemistry -
 -------------------
 Temperature   298.150 Kelvin.  Pressure   1.00000 Atm.
 Atom     1 has atomic number  6 and mass  12.00000

 Molecular mass:   222.08787 amu.
 Principal axes and moments of inertia in atomic units:
                           1         2         3
     Eigenvalues --   948.53221********************
           X            0.99995  -0.00712   0.00637
           Y            0.00712   0.99997   0.00024
           Z           -0.00637  -0.00019   0.99998
 This molecule is an asymmetric top.
 Rotational symmetry number  1.
 Warning -- assumption of classical behavior for rotation
           may cause significant error
 Rotational temperatures (Kelvin)      0.09131     0.00838     0.00797
 Rotational constants (GHZ):           1.90267     0.17460     0.16607
 Zero-point vibrational energy     581554.4 (Joules/Mol)
                                  138.99484 (Kcal/Mol)
 Warning -- explicit consideration of  21 degrees of freedom as
           vibrations may cause significant error
 Vibrational temperatures:     33.23    45.01    92.70    99.46   125.33
          (Kelvin)            136.48   180.85   234.99   330.48   339.77
                              356.37   411.92   443.09   467.13   552.80
                              623.03   627.08   715.12   760.62   781.81
                              796.10   910.30   986.06  1014.89  1037.14
                             1115.79  1117.75  1158.07  1201.67  1219.49
                             1260.56  1267.16  1282.38  1300.01  1429.79
                             1442.22  1454.72  1456.70  1529.72  1628.18
                             1637.54  1648.20  1679.10  1713.64  1754.14
                             1802.07  1859.99  1888.82  1916.89  1938.72
                             1958.84  1984.65  2038.83  2047.35  2082.87
                             2138.39  2173.65  2177.99  2179.45  2192.85
                             2199.02  2257.46  2269.32  2364.62  2380.06
                             2468.64  4393.77  4402.27  4403.21  4478.13
                             4494.51  4511.76  4517.55  4639.53  4670.75
                             4678.86  4736.96  5243.28

 Zero-point correction=                           0.221502 (Hartree/Particle)
 Thermal correction to Energy=                    0.236464
 Thermal correction to Enthalpy=                  0.237408
 Thermal correction to Gibbs Free Energy=         0.176995
 Sum of electronic and zero-point Energies=           -777.698597
 Sum of electronic and thermal Energies=              -777.683636
 Sum of electronic and thermal Enthalpies=            -777.682691
 Sum of electronic and thermal Free Energies=         -777.743105

                     E (Thermal)             CV                S
                      KCal/Mol        Cal/Mol-Kelvin    Cal/Mol-Kelvin
 Total                  148.383             54.738            127.151
 Electronic               0.000              0.000              0.000
 Translational            0.889              2.981             42.096
 Rotational               0.889              2.981             33.032
 Vibrational            146.606             48.776             52.022
 Vibration     1          0.593              1.985              6.348
 Vibration     2          0.594              1.983              5.747
 Vibration     3          0.597              1.971              4.317
 Vibration     4          0.598              1.969              4.178
 Vibration     5          0.601              1.958              3.724
 Vibration     6          0.603              1.953              3.557
 Vibration     7          0.611              1.927              3.011
 Vibration     8          0.623              1.887              2.511
 Vibration     9          0.652              1.796              1.881
 Vibration    10          0.655              1.785              1.832
 Vibration    11          0.661              1.767              1.747
 Vibration    12          0.684              1.699              1.496
 Vibration    13          0.698              1.659              1.373
 Vibration    14          0.709              1.626              1.286
 Vibration    15          0.753              1.504              1.023
 Vibration    16          0.794              1.398              0.849
 Vibration    17          0.796              1.392              0.840
 Vibration    18          0.853              1.257              0.666
 Vibration    19          0.884              1.187              0.590
 Vibration    20          0.899              1.154              0.558
 Vibration    21          0.909              1.132              0.537

 Normal termination of Gaussian 09 at Thu Aug 30 12:34:07 2018.
