 Gaussian 09, Revision E.01,

 ----------------------------------------------------------------------
 # M062X/Gen 6D SCF=Tight INT(grid=ultrafine) OPT IOP(2/17=4) SCRF=(SMD
 ,Solvent=n-Pentadecane) maxdisk=3221225472
 ----------------------------------------------------------------------

 --------------------------------------
 4SF5_EtO.M062X_6-31pGd_opt_Pentadecane
 --------------------------------------
 Symbolic Z-matrix:
 Charge = -1 Multiplicity = 1

 SCF Done:  E(RM062X) =  -1738.29174932     A.U. after   18 cycles
 SCF Done:  E(RM062X) =  -1738.34079965     A.U. after   13 cycles
 SCF Done:  E(RM062X) =  -1738.37044871     A.U. after   14 cycles
 SCF Done:  E(RM062X) =  -1738.37546793     A.U. after   14 cycles
 SCF Done:  E(RM062X) =  -1738.37694785     A.U. after   15 cycles
 SCF Done:  E(RM062X) =  -1738.37576125     A.U. after   15 cycles
 SCF Done:  E(RM062X) =  -1738.37745166     A.U. after   11 cycles
 SCF Done:  E(RM062X) =  -1738.37773962     A.U. after   12 cycles
 SCF Done:  E(RM062X) =  -1738.37785151     A.U. after   12 cycles
 SCF Done:  E(RM062X) =  -1738.37787132     A.U. after   11 cycles
 SCF Done:  E(RM062X) =  -1738.37789414     A.U. after   10 cycles
 SCF Done:  E(RM062X) =  -1738.37789438     A.U. after   10 cycles
 SCF Done:  E(RM062X) =  -1738.37789400     A.U. after   11 cycles
 SCF Done:  E(RM062X) =  -1738.37789395     A.U. after    8 cycles
 SCF Done:  E(RM062X) =  -1738.37789400     A.U. after    8 cycles
 SCF Done:  E(RM062X) =  -1738.37789445     A.U. after   11 cycles
 SCF Done:  E(RM062X) =  -1738.37789457     A.U. after   10 cycles
 SCF Done:  E(RM062X) =  -1738.37789439     A.U. after   10 cycles
 Optimization completed.
    -- Stationary point found.

 1\1\GINC-R3777\FOpt\RM062X\Gen\C13H18F5N2O3S1(1-)\ROOT\19-Feb-2019\0\\
 # M062X/Gen 6D SCF=Tight INT(grid=ultrafine) OPT IOP(2/17=4) SCRF=(SMD
 ,Solvent=n-Pentadecane) maxdisk=3221225472\\4SF5_EtO.M062X_6-31pGd_opt
 _Pentadecane\\-1,1\C,-2.1603464566,2.3378583421,-0.089024084\C,-0.8157
 249329,1.6317428169,0.0597884595\C,0.3476219408,2.5846439935,-0.186983
 6024\N,1.6063950709,1.8857308841,-0.0314410794\C,2.7740622416,2.552998
 235,-0.1621659133\O,2.8382374089,3.7602505125,-0.4134979036\N,3.888158
 6504,1.7414894652,0.0180011472\C,5.2126783146,2.1107408782,-0.05293533

 Normal termination of Gaussian 09 at Tue Feb 19 13:39:49 2019.
 Gaussian 09:  ES64L-G09RevE.01 30-Nov-2015

 ----------------------------------------------------------------------
 # M062X/Gen 6D SCF=Tight INT(grid=ultrafine) OPT IOP(2/17=4) SCRF=(SMD
 ,Solvent=n-Pentadecane) Freq=Noraman maxdisk=3221225472 geom=check gue
 ss=read IOP(2/17=4)
 ----------------------------------------------------------------------

 --------------------------------------
 4SF5_EtO.M062X_6-31pGd_opt_Pentadecane
 --------------------------------------
 Structure from the checkpoint file:  "4SF5_EtO.M062X_6-31pGd_opt_Pentadecane.chk"
 Charge = -1 Multiplicity = 1

 SCF Done:  E(RM062X) =  -1738.37789439     A.U. after    1 cycles
 Optimization completed.
    -- Stationary point found.

 1\1\GINC-R3777\FOpt\RM062X\Gen\C13H18F5N2O3S1(1-)\ROOT\19-Feb-2019\0\\
 # M062X/Gen 6D SCF=Tight INT(grid=ultrafine) OPT IOP(2/17=4) SCRF=(SMD
 ,Solvent=n-Pentadecane) Freq=Noraman maxdisk=3221225472 geom=check gue
 ss=read IOP(2/17=4)\\4SF5_EtO.M062X_6-31pGd_opt_Pentadecane\\-1,1\C,-2
 .1603464566,2.3378583421,-0.089024084\C,-0.8157249329,1.6317428169,0.0
 597884595\C,0.3476219408,2.5846439935,-0.1869836024\N,1.6063950709,1.8
 857308841,-0.0314410794\C,2.7740622416,2.552998235,-0.1621659133\O,2.8
 382374089,3.7602505125,-0.4134979036\N,3.8881586504,1.7414894652,0.018

 Normal termination of Gaussian 09 at Tue Feb 19 13:40:59 2019.

 ----------------------------------------------------------------------
 #N Geom=AllCheck Guess=TCheck SCRF=Check Test GenChk RM062X/ChkBas Fre
 q
 ----------------------------------------------------------------------

 Structure from the checkpoint file:  "4SF5_EtO.M062X_6-31pGd_opt_Pentadecane.chk"
 --------------------------------------
 4SF5_EtO.M062X_6-31pGd_opt_Pentadecane
 --------------------------------------
 Charge = -1 Multiplicity = 1

                         Standard orientation:
 ---------------------------------------------------------------------
 Center     Atomic      Atomic             Coordinates (Angstroms)
 Number     Number       Type             X           Y           Z
 ---------------------------------------------------------------------
      1          6           0        7.026608   -2.735462    0.037186
      2          6           0        5.936446   -1.667639    0.029837
      3          6           0        4.545239   -2.287875   -0.016479
      4          7           0        3.535922   -1.249385   -0.015414
      5          6           0        2.224996   -1.576798   -0.008041
      6          8           0        1.819615   -2.743145   -0.001418
      7          7           0        1.386745   -0.467947   -0.005910
      8          6           0        0.009917   -0.459760   -0.003031
      9          6           0       -0.803861   -1.610980   -0.010455
     10          6           0       -0.611902    0.809933    0.007113
     11          6           0       -1.989383    0.930309    0.008820
     12          6           0       -2.770796   -0.225122    0.000520
     13          6           0       -2.187586   -1.487275   -0.008921
     14          1           0        8.023653   -2.284028    0.067451
     15          1           0        6.971080   -3.363348   -0.859969
     16          1           0        6.930354   -3.392627    0.909604
     17          1           0        6.063264   -1.001790   -0.832076
     18          1           0        6.018044   -1.035152    0.921888
     19          1           0        4.397458   -2.950714    0.847229
     20          1           0        4.441427   -2.915291   -0.913381
     21          1           0        3.838713   -0.258586   -0.040256
     22          1           0        1.833147    0.474003    0.003389
     23          1           0       -0.343369   -2.588752   -0.016919
     24          1           0        0.017166    1.696276    0.013721
     25          1           0       -2.445932    1.914372    0.016589
     26         16           0       -4.559659   -0.077029    0.001811
     27          1           0       -2.800809   -2.382384   -0.015138
     28          9           0       -4.562202    1.083394   -1.129299
     29          9           0       -6.177868    0.059667    0.002940
     30          9           0       -4.754870   -1.200189   -1.150242
     31          9           0       -4.755205   -1.221662    1.132397
     32          9           0       -4.562400    1.062014    1.154444
     33          8           0        4.453594    1.419979   -0.078774
     34          8           0        2.332186    2.137347    0.031847
     35          6           0        3.579142    2.322566   -0.017683
     36          6           0        4.093054    3.768865    0.003532
     37          6           0        3.007023    4.836202    0.016834
     38          1           0        4.750919    3.890497   -0.865639
     39          1           0        4.742075    3.863287    0.883385
     40          1           0        2.366595    4.753780   -0.866604
     41          1           0        3.444981    5.841489    0.031291
     42          1           0        2.363488    4.728524    0.894938
 ---------------------------------------------------------------------

 SCF Done:  E(RM062X) =  -1738.37789439     A.U. after    1 cycles

 The electronic state is 1-A.
 Alpha  occ. eigenvalues --  -90.27991 -25.26088 -25.26083 -25.26077 -25.26076
 Alpha  occ. eigenvalues --  -25.25908 -19.54704 -19.52881 -19.52366 -14.72384
 Alpha  occ. eigenvalues --  -14.70484 -10.61633 -10.57437 -10.56161 -10.54982
 Alpha  occ. eigenvalues --  -10.53002 -10.52972 -10.52128 -10.50865 -10.50628
 Alpha  occ. eigenvalues --  -10.49420 -10.49337 -10.48108 -10.47849  -8.56679
 Alpha  occ. eigenvalues --   -6.49105  -6.49088  -6.48628  -1.44574  -1.34970
 Alpha  occ. eigenvalues --   -1.34845  -1.31789  -1.30582  -1.10824  -1.08945
 Alpha  occ. eigenvalues --   -0.99528  -0.99023  -0.96106  -0.93399  -0.88067
 Alpha  occ. eigenvalues --   -0.83179  -0.81336  -0.80172  -0.79462  -0.73067
 Alpha  occ. eigenvalues --   -0.69110  -0.68957  -0.68513  -0.66874  -0.66429
 Alpha  occ. eigenvalues --   -0.63573  -0.62309  -0.60709  -0.58812  -0.57577
 Alpha  occ. eigenvalues --   -0.57173  -0.55740  -0.55483  -0.53359  -0.52064
 Alpha  occ. eigenvalues --   -0.50959  -0.50412  -0.50366  -0.50078  -0.50029
 Alpha  occ. eigenvalues --   -0.48931  -0.48310  -0.48026  -0.47382  -0.46776
 Alpha  occ. eigenvalues --   -0.46705  -0.46497  -0.46137  -0.46016  -0.45292
 Alpha  occ. eigenvalues --   -0.44878  -0.43761  -0.42990  -0.42037  -0.41187
 Alpha  occ. eigenvalues --   -0.39603  -0.39563  -0.39289  -0.38683  -0.37372
 Alpha  occ. eigenvalues --   -0.36833  -0.36025  -0.35027  -0.34763  -0.34006
 Alpha  occ. eigenvalues --   -0.32787  -0.28242  -0.27426  -0.25815  -0.25221
 Alpha  occ. eigenvalues --   -0.25087  -0.24552  -0.21395
 Alpha virt. eigenvalues --    0.02842   0.05052   0.06181   0.06542   0.06897
 Alpha virt. eigenvalues --    0.07263   0.07665   0.08221   0.08254   0.08439
 Alpha virt. eigenvalues --    0.08854   0.09074   0.09461   0.10045   0.10606

 Mulliken charges:
               1
     1  C   -0.814423
     2  C   -0.336969
     3  C   -0.175902
     4  N   -0.795356
     5  C    0.848766
     6  O   -0.626549
     7  N   -0.669816
     8  C    0.297507
     9  C    0.057557
    10  C   -0.393688
    11  C    0.003356
    12  C   -0.581907
    13  C   -0.329674
    14  H    0.208492
    15  H    0.207749
    16  H    0.207498
    17  H    0.238397
    18  H    0.236009
    19  H    0.218694
    20  H    0.216879
    21  H    0.528683
    22  H    0.515055
    23  H    0.276783
    24  H    0.282892
    25  H    0.244929
    26  S    2.235055
    27  H    0.242156
    28  F   -0.500079
    29  F   -0.514928
    30  F   -0.503078
    31  F   -0.503352
    32  F   -0.499784
    33  O   -0.651492
    34  O   -0.692863
    35  C    0.684499
    36  C   -0.495609
    37  C   -0.721462
    38  H    0.217329
    39  H    0.217823
    40  H    0.216140
    41  H    0.186860
    42  H    0.217821
 Sum of Mulliken charges =  -1.00000

 Dipole moment (field-independent basis, Debye):
    X=             -3.0509    Y=             -0.3686    Z=              0.0753  Tot=              3.0740
 Quadrupole moment (field-independent basis, Debye-Ang):
   XX=           -224.5225   YY=           -171.2044   ZZ=           -155.2598
   XY=             -6.9330   XZ=              0.6390   YZ=              0.0993

  Exact polarizability: 334.412 -11.756 243.692  -0.703   0.741 153.037
 Approx polarizability: 299.048  -5.334 256.501  -1.002   0.771 180.624

                      1                      2                      3
                      A                      A                      A
 Frequencies --      2.9887                19.8097                25.9996
 Red. masses --      3.8378                 4.5349                 8.1406
 Frc consts  --      0.0000                 0.0010                 0.0032
 IR Inten    --      0.2754                 1.0211                 0.0431

                      4                      5                      6
                      A                      A                      A
 Frequencies --     42.9059                45.5871                51.1111
 Red. masses --      3.7999                 5.9278                 5.2255
 Frc consts  --      0.0041                 0.0073                 0.0080
 IR Inten    --      0.5414                 1.9247                 1.4601

                      7                      8                      9
                      A                      A                      A
 Frequencies --     55.9103                69.2943                75.7470
 Red. masses --      4.3725                 3.1067                 1.9102
 Frc consts  --      0.0081                 0.0088                 0.0065
 IR Inten    --      3.1140                 0.8086                 0.2181

                     10                     11                     12
                      A                      A                      A
 Frequencies --     83.3616                84.2847                99.9567
 Red. masses --      4.6695                 4.6437                 7.5023
 Frc consts  --      0.0191                 0.0194                 0.0442
 IR Inten    --      4.6226                 2.5461                 4.7870

                     13                     14                     15
                      A                      A                      A
 Frequencies --    121.4578               123.7078               171.1269
 Red. masses --      8.0191                 5.8299                 7.8674
 Frc consts  --      0.0697                 0.0526                 0.1357
 IR Inten    --     10.5283                 3.9836                 9.9570

                     16                     17                     18
                      A                      A                      A
 Frequencies --    177.2225               180.3248               214.0228
 Red. masses --      3.7531                 5.2267                 5.2210
 Frc consts  --      0.0695                 0.1001                 0.1409
 IR Inten    --      8.9841                19.1564                 8.1205

                     19                     20                     21
                      A                      A                      A
 Frequencies --    220.8951               237.4231               245.0194
 Red. masses --      6.9435                 1.1039                 1.1283
 Frc consts  --      0.1996                 0.0367                 0.0399
 IR Inten    --      0.3275                 0.5114                 0.0083

                     22                     23                     24
                      A                      A                      A
 Frequencies --    293.1160               304.9099               329.5137
 Red. masses --      5.9325                 4.4685                11.2518
 Frc consts  --      0.3003                 0.2448                 0.7198
 IR Inten    --      7.3345                11.4193                 0.2050

                     25                     26                     27
                      A                      A                      A
 Frequencies --    333.1262               338.5001               354.4717
 Red. masses --      5.6451                18.4775                 4.7938
 Frc consts  --      0.3691                 1.2474                 0.3549
 IR Inten    --      3.2015                 0.0019                27.7828

                     28                     29                     30
                      A                      A                      A
 Frequencies --    383.5273               423.2496               439.6385
 Red. masses --      7.7406                 3.2184                 8.4141
 Frc consts  --      0.6708                 0.3397                 0.9582
 IR Inten    --     20.7097                 0.0172                 1.3035

                     31                     32                     33
                      A                      A                      A
 Frequencies --    441.2158               449.8818               494.8107
 Red. masses --      7.0890                18.8369                 4.4704
 Frc consts  --      0.8131                 2.2462                 0.6449
 IR Inten    --      0.0676                 1.2594                29.9757

                     34                     35                     36
                      A                      A                      A
 Frequencies --    519.4083               534.1739               554.4621
 Red. masses --      5.6073                 5.1354                17.9891
 Frc consts  --      0.8913                 0.8633                 3.2584
 IR Inten    --     21.5377                 0.3751                11.6394

                     37                     38                     39
                      A                      A                      A
 Frequencies --    563.3411               585.0315               585.5901
 Red. masses --      5.2238                 1.9838                16.7101
 Frc consts  --      0.9767                 0.4000                 3.3761
 IR Inten    --     38.3956                 1.1766               128.0281

                     40                     41                     42
                      A                      A                      A
 Frequencies --    604.7278               635.1448               646.2774
 Red. masses --     18.6928                 7.2262                10.7994
 Frc consts  --      4.0276                 1.7175                 2.6576
 IR Inten    --      0.0282                 4.4397                33.6436

                     43                     44                     45
                      A                      A                      A
 Frequencies --    658.7811               682.5507               724.8871
 Red. masses --      4.7191                 9.2493                 4.0288
 Frc consts  --      1.2067                 2.5388                 1.2473
 IR Inten    --     57.9112                 0.4111                 0.2489

                     46                     47                     48
                      A                      A                      A
 Frequencies --    751.3948               767.5965               779.1817
 Red. masses --      1.1714                 2.6536                 6.8757
 Frc consts  --      0.3897                 0.9212                 2.4595
 IR Inten    --     10.6302                38.9282                27.6518

                     49                     50                     51
                      A                      A                      A
 Frequencies --    810.9225               824.8463               829.4519
 Red. masses --      1.3720                 1.4395                12.0669
 Frc consts  --      0.5316                 0.5770                 4.8913
 IR Inten    --      3.6586                11.0287               712.9683

                     52                     53                     54
                      A                      A                      A
 Frequencies --    851.0471               868.7177               871.8981
 Red. masses --      1.2442                 1.8037                 9.2670
 Frc consts  --      0.5309                 0.8020                 4.1507
 IR Inten    --      6.8175                 0.1518               526.3670

                     55                     56                     57
                      A                      A                      A
 Frequencies --    878.2309               880.7640               892.6267
 Red. masses --      6.3736                15.2563                 4.0658
 Frc consts  --      2.8964                 6.9730                 1.9087
 IR Inten    --    220.1167               268.2827                47.6801

                     58                     59                     60
                      A                      A                      A
 Frequencies --    901.9052               930.5336               956.3107
 Red. masses --      1.1554                 1.7179                 1.0843
 Frc consts  --      0.5537                 0.8764                 0.5842
 IR Inten    --      7.0399                 9.2032               110.6338

                     61                     62                     63
                      A                      A                      A
 Frequencies --    994.0647              1011.4504              1021.8784
 Red. masses --      1.2840                 1.3074                 3.9303
 Frc consts  --      0.7475                 0.7881                 2.4181
 IR Inten    --      6.3444                 3.8390                55.2158

                     64                     65                     66
                      A                      A                      A
 Frequencies --   1025.8472              1052.0423              1083.7282
 Red. masses --      1.6667                 4.0978                 2.6382
 Frc consts  --      1.0334                 2.6722                 1.8256
 IR Inten    --      7.7122                12.1203                 1.6858

                     67                     68                     69
                      A                      A                      A
 Frequencies --   1109.7006              1114.4230              1127.7395
 Red. masses --      1.7633                 2.3632                 2.6673
 Frc consts  --      1.2793                 1.7292                 1.9987
 IR Inten    --      0.6917                 8.3712               191.2300

                     70                     71                     72
                      A                      A                      A
 Frequencies --   1156.1168              1170.6135              1184.2549
 Red. masses --      2.1925                 1.3970                 1.6136
 Frc consts  --      1.7266                 1.1279                 1.3333
 IR Inten    --      9.8800                13.2162                 0.5005

                     73                     74                     75
                      A                      A                      A
 Frequencies --   1191.2385              1222.3789              1278.7893
 Red. masses --      3.9251                 1.1765                 1.1920
 Frc consts  --      3.2817                 1.0357                 1.1485
 IR Inten    --      0.7317                31.8119                 0.8001

                     76                     77                     78
                      A                      A                      A
 Frequencies --   1289.0555              1307.1971              1327.7575
 Red. masses --      1.1852                 1.8268                 1.2451
 Frc consts  --      1.1604                 1.8391                 1.2932
 IR Inten    --      0.0861               457.2433                 3.8704

                     79                     80                     81
                      A                      A                      A
 Frequencies --   1330.6316              1338.8108              1348.9116
 Red. masses --      1.4872                 1.6605                 1.6398
 Frc consts  --      1.5514                 1.7536                 1.7580
 IR Inten    --     10.9568                38.1213                17.6013

                     82                     83                     84
                      A                      A                      A
 Frequencies --   1368.0569              1392.6552              1426.5045
 Red. masses --      2.1499                 4.0027                 1.3349
 Frc consts  --      2.3707                 4.5739                 1.6005
 IR Inten    --    296.0657               313.9675                 1.9763

                     85                     86                     87
                      A                      A                      A
 Frequencies --   1426.8382              1435.6061              1467.5452
 Red. masses --      1.3482                 1.5880                 3.2576
 Frc consts  --      1.6171                 1.9283                 4.1337
 IR Inten    --     39.6270                10.2432                22.1673

                     88                     89                     90
                      A                      A                      A
 Frequencies --   1473.7546              1486.1570              1504.1976
 Red. masses --      2.6437                 1.4186                 1.0728
 Frc consts  --      3.3831                 1.8460                 1.4302
 IR Inten    --    360.7688                75.9465                 9.7889

                     91                     92                     93
                      A                      A                      A
 Frequencies --   1512.1410              1520.5258              1524.3982
 Red. masses --      1.0407                 1.0404                 1.0901
 Frc consts  --      1.4021                 1.4172                 1.4925
 IR Inten    --      7.4042                 8.6642                56.3818

                     94                     95                     96
                      A                      A                      A
 Frequencies --   1524.8640              1541.7661              1559.4481
 Red. masses --      1.0767                 1.0878                 2.5947
 Frc consts  --      1.4750                 1.5235                 3.7178
 IR Inten    --      4.3803                20.1732               306.6550

                     97                     98                     99
                      A                      A                      A
 Frequencies --   1615.2634              1639.5992              1667.5997
 Red. masses --      2.8636                 2.4824                 6.1888
 Frc consts  --      4.4020                 3.9319                10.1400
 IR Inten    --    178.1642                35.5648               877.3466

                    100                    101                    102
                      A                      A                      A
 Frequencies --   1681.9625              1709.8775              1782.7120
 Red. masses --      3.0047                 3.2381                 2.9612
 Frc consts  --      5.0082                 5.5779                 5.5447
 IR Inten    --    332.9786               708.7585               453.4084

                    103                    104                    105
                      A                      A                      A
 Frequencies --   3046.6682              3057.9012              3068.4868
 Red. masses --      1.0603                 1.0959                 1.0368
 Frc consts  --      5.7989                 6.0377                 5.7515
 IR Inten    --     65.1009              1166.2725                50.3398

                    106                    107                    108
                      A                      A                      A
 Frequencies --   3072.3405              3074.8759              3078.5073
 Red. masses --      1.0497                 1.1028                 1.0526
 Frc consts  --      5.8377                 6.1431                 5.8775
 IR Inten    --     65.8174                35.7944                 3.1198

                    109                    110                    111
                      A                      A                      A
 Frequencies --   3083.5743              3110.6637              3117.9963
 Red. masses --      1.0605                 1.1010                 1.1035
 Frc consts  --      5.9413                 6.2771                 6.3209
 IR Inten    --     31.4741                15.2257                 2.0691

                    112                    113                    114
                      A                      A                      A
 Frequencies --   3140.5459              3142.4659              3144.6223
 Red. masses --      1.1039                 1.0977                 1.1013
 Frc consts  --      6.4150                 6.3865                 6.4163
 IR Inten    --     78.2666                47.9272                36.8941

                    115                    116                    117
                      A                      A                      A
 Frequencies --   3163.0855              3189.4955              3233.2077
 Red. masses --      1.1027                 1.0921                 1.0911
 Frc consts  --      6.5001                 6.5456                 6.7203
 IR Inten    --     42.4076              1835.9907                38.8214

                    118                    119                    120
                      A                      A                      A
 Frequencies --   3249.6848              3251.6376              3303.7771
 Red. masses --      1.0918                 1.0947                 1.0917
 Frc consts  --      6.7931                 6.8193                 7.0207
 IR Inten    --      0.2866                 1.9823                10.3863

 - Thermochemistry -
 -------------------
 Temperature   298.150 Kelvin.  Pressure   1.00000 Atm.
 Atom     1 has atomic number  6 and mass  12.00000

 Molecular mass:   377.09583 amu.
 Principal axes and moments of inertia in atomic units:
                           1         2         3
     Eigenvalues --  5160.04841********************
           X            0.99999  -0.00453   0.00020
           Y            0.00453   0.99999   0.00014
           Z           -0.00020  -0.00014   1.00000
 This molecule is an asymmetric top.
 Rotational symmetry number  1.
 Warning -- assumption of classical behavior for rotation
           may cause significant error
 Rotational temperatures (Kelvin)      0.01679     0.00394     0.00328
 Rotational constants (GHZ):           0.34975     0.08206     0.06839
 Zero-point vibrational energy     840386.0 (Joules/Mol)
                                  200.85706 (Kcal/Mol)
 Warning -- explicit consideration of  40 degrees of freedom as
           vibrations may cause significant error
 Vibrational temperatures:      4.30    28.50    37.41    61.73    65.59
          (Kelvin)             73.54    80.44    99.70   108.98   119.94
                              121.27   143.82   174.75   177.99   246.21
                              254.98   259.45   307.93   317.82   341.60
                              352.53   421.73   438.70   474.10   479.29
                              487.03   510.01   551.81   608.96   632.54
                              634.81   647.28   711.92   747.31   768.56
                              797.75   810.52   841.73   842.53   870.07
                              913.83   929.85   947.84   982.04  1042.95
                             1081.09  1104.40  1121.07  1166.74  1186.77
                             1193.39  1224.47  1249.89  1254.47  1263.58
                             1267.22  1284.29  1297.64  1338.83  1375.92
                             1430.24  1455.25  1470.25  1475.96  1513.65
                             1559.24  1596.61  1603.40  1622.56  1663.39
                             1684.25  1703.88  1713.92  1758.73  1839.89
                             1854.66  1880.76  1910.34  1914.48  1926.25
                             1940.78  1968.33  2003.72  2052.42  2052.90
                             2065.51  2111.47  2120.40  2138.25  2164.20
                             2175.63  2187.69  2193.27  2193.94  2218.25
                             2243.70  2324.00  2359.01  2399.30  2419.97
                             2460.13  2564.92  4383.47  4399.63  4414.86
                             4420.41  4424.06  4429.28  4436.57  4475.55
                             4486.10  4518.54  4521.30  4524.40  4550.97
                             4588.97  4651.86  4675.57  4678.38  4753.39

 Zero-point correction=                           0.320086 (Hartree/Particle)
 Thermal correction to Energy=                    0.345486
 Thermal correction to Enthalpy=                  0.346431
 Thermal correction to Gibbs Free Energy=         0.258678
 Sum of electronic and zero-point Energies=          -1738.057808
 Sum of electronic and thermal Energies=             -1738.032408
 Sum of electronic and thermal Enthalpies=           -1738.031464
 Sum of electronic and thermal Free Energies=        -1738.119216

                     E (Thermal)             CV                S
                      KCal/Mol        Cal/Mol-Kelvin    Cal/Mol-Kelvin
 Total                  216.796             91.546            184.690
 Electronic               0.000              0.000              0.000
 Translational            0.889              2.981             43.675
 Rotational               0.889              2.981             36.347
 Vibrational            215.019             85.584            104.669
 Vibration     1          0.592              1.987             10.411
 Vibration     2          0.593              1.986              6.653
 Vibration     3          0.593              1.985              6.113
 Vibration     4          0.595              1.980              5.120
 Vibration     5          0.595              1.979              5.000
 Vibration     6          0.595              1.977              4.774
 Vibration     7          0.596              1.975              4.597
 Vibration     8          0.598              1.969              4.173
 Vibration     9          0.599              1.965              3.998
 Vibration    10          0.600              1.961              3.810
 Vibration    11          0.601              1.960              3.789
 Vibration    12          0.604              1.949              3.455
 Vibration    13          0.609              1.931              3.077
 Vibration    14          0.610              1.929              3.042
 Vibration    15          0.626              1.878              2.423
 Vibration    16          0.628              1.870              2.357
 Vibration    17          0.629              1.866              2.325
 Vibration    18          0.644              1.820              2.009
 Vibration    19          0.648              1.809              1.952
 Vibration    20          0.656              1.783              1.822
 Vibration    21          0.660              1.771              1.766
 Vibration    22          0.688              1.687              1.456
 Vibration    23          0.696              1.664              1.390
 Vibration    24          0.712              1.617              1.262
 Vibration    25          0.715              1.609              1.245
 Vibration    26          0.719              1.599              1.219
 Vibration    27          0.730              1.566              1.146
 Vibration    28          0.753              1.505              1.025
 Vibration    29          0.785              1.420              0.881
 Vibration    30          0.800              1.384              0.828
 Vibration    31          0.801              1.380              0.823
 Vibration    32          0.809              1.361              0.796
 Vibration    33          0.850              1.262              0.671
 Vibration    34          0.874              1.207              0.611
 Vibration    35          0.889              1.174              0.578
 Vibration    36          0.910              1.130              0.535
 Vibration    37          0.919              1.111              0.517
 Vibration    38          0.942              1.064              0.476
 Vibration    39          0.943              1.063              0.475
 Vibration    40          0.963              1.022              0.442

 1\1\GINC-R3777\Freq\RM062X\Gen\C13H18F5N2O3S1(1-)\ROOT\19-Feb-2019\0\\
 #N Geom=AllCheck Guess=TCheck SCRF=Check Test GenChk RM062X/ChkBas Fre
 q\\4SF5_EtO.M062X_6-31pGd_opt_Pentadecane\\-1,1\C,-2.1603464566,2.3378
 583421,-0.089024084\C,-0.8157249329,1.6317428169,0.0597884595\C,0.3476
 219408,2.5846439935,-0.1869836024\N,1.6063950709,1.8857308841,-0.03144
 10794\C,2.7740622416,2.552998235,-0.1621659133\O,2.8382374089,3.760250
 5125,-0.4134979036\N,3.8881586504,1.7414894652,0.0180011472\C,5.212678
 3146,2.1107408782,-0.0529353362\C,5.673331125,3.4124808561,-0.33731402

 Normal termination of Gaussian 09 at Tue Feb 19 14:38:11 2019.
