 Gaussian 09, Revision E.01,

 ----------------------------------------------------------------------
 # M062X/Gen 6D SCF=Tight INT(grid=ultrafine) OPT IOP(2/17=4) SCRF=(SMD
 ,Solvent=n-Pentadecane) maxdisk=2147483648
 ----------------------------------------------------------------------

 ----------------------------------
 4SF5.M062X_6-31pGd_opt_Pentadecane
 ----------------------------------
 Symbolic Z-matrix:
 Charge =  0 Multiplicity = 1

 SCF Done:  E(RM062X) =  -1470.50729744     A.U. after   18 cycles
 SCF Done:  E(RM062X) =  -1470.53763652     A.U. after   13 cycles
 SCF Done:  E(RM062X) =  -1470.54507743     A.U. after   13 cycles
 SCF Done:  E(RM062X) =  -1470.54590232     A.U. after   13 cycles
 SCF Done:  E(RM062X) =  -1470.54606793     A.U. after   12 cycles
 SCF Done:  E(RM062X) =  -1470.54607455     A.U. after   11 cycles
 SCF Done:  E(RM062X) =  -1470.54607931     A.U. after   10 cycles
 SCF Done:  E(RM062X) =  -1470.54607949     A.U. after    9 cycles
 SCF Done:  E(RM062X) =  -1470.54607978     A.U. after    8 cycles
 SCF Done:  E(RM062X) =  -1470.54608001     A.U. after    9 cycles
 SCF Done:  E(RM062X) =  -1470.54612786     A.U. after   13 cycles
 SCF Done:  E(RM062X) =  -1470.54602073     A.U. after   12 cycles
 SCF Done:  E(RM062X) =  -1470.54619831     A.U. after   13 cycles
 SCF Done:  E(RM062X) =  -1470.54625163     A.U. after   12 cycles
 SCF Done:  E(RM062X) =  -1470.54627095     A.U. after   12 cycles
 SCF Done:  E(RM062X) =  -1470.54627302     A.U. after   11 cycles
 SCF Done:  E(RM062X) =  -1470.54627944     A.U. after   11 cycles
 SCF Done:  E(RM062X) =  -1470.54627997     A.U. after   10 cycles
 SCF Done:  E(RM062X) =  -1470.54628016     A.U. after   10 cycles
 Optimization completed.
    -- Stationary point found.
 Normal termination of Gaussian 09 at Mon Feb 25 13:21:20 2019.
 Gaussian 09:  ES64L-G09RevE.01 30-Nov-2015

 ----------------------------------------------------------------------
 # M062X/Gen 6D SCF=Tight INT(grid=ultrafine) SCRF=(SMD,Solvent=n-Penta
 decane) Freq=Noraman maxdisk=2147483648 geom=check guess=read IOP(2/17
 =4)
 ----------------------------------------------------------------------

 ----------------------------------
 4SF5.M062X_6-31pGd_opt_Pentadecane
 ----------------------------------
 Structure from the checkpoint file:  "4SF5.M062X_6-31pGd_opt_Pentadecane.chk"
 Charge =  0 Multiplicity = 1

                         Standard orientation:
 ---------------------------------------------------------------------
 Center     Atomic      Atomic             Coordinates (Angstroms)
 Number     Number       Type             X           Y           Z
 ---------------------------------------------------------------------
      1          6           0       -8.149133   -0.364069    0.035273
      2          6           0       -6.873252    0.469031    0.115865
      3          6           0       -5.635017   -0.379325   -0.144110
      4          7           0       -4.432472    0.439189   -0.063479
      5          6           0       -3.202583   -0.152818    0.006266
      6          8           0       -3.049204   -1.360134    0.116982
      7          7           0       -2.150530    0.755751   -0.028904
      8          6           0       -0.782825    0.485096   -0.009174
      9          6           0       -0.241772   -0.809326   -0.033837
     10          6           0        0.083780    1.590882    0.023284
     11          6           0        1.458501    1.420738    0.028171
     12          6           0        1.973588    0.128764   -0.000036
     13          6           0        1.138202   -0.980448   -0.030652
     14          1           0       -9.033709    0.250798    0.225684
     15          1           0       -8.137272   -1.172283    0.774633
     16          1           0       -8.263293   -0.817755   -0.955376
     17          1           0       -6.785465    0.933225    1.105535
     18          1           0       -6.920007    1.284317   -0.619170
     19          1           0       -5.705328   -0.868216   -1.126034
     20          1           0       -5.548336   -1.170185    0.605959
     21          1           0       -4.497915    1.382488   -0.427212
     22          1           0       -2.394742    1.738127    0.006883
     23          1           0       -0.894862   -1.669964   -0.051810
     24          1           0       -0.326477    2.597381    0.043854
     25          1           0        2.112142    2.285721    0.053431
     26         16           0        3.760658   -0.106886    0.002740
     27          1           0        1.547944   -1.984577   -0.051413
     28          9           0        3.983325    0.982492    1.177323
     29          9           0        5.360363   -0.314717    0.004457
     30          9           0        3.687655   -1.283822    1.107155
     31          9           0        3.699161   -1.214655   -1.172120
     32          9           0        3.995554    1.051417   -1.101734
 ---------------------------------------------------------------------

 SCF Done:  E(RM062X) =  -1470.54628016     A.U. after    1 cycles

 The electronic state is 1-A.
 Alpha  occ. eigenvalues --  -90.32326 -25.30192 -25.30191 -25.30188 -25.30185
 Alpha  occ. eigenvalues --  -25.30009 -19.62316 -14.81629 -14.79535 -10.69724
 Alpha  occ. eigenvalues --  -10.62736 -10.60415 -10.58656 -10.58549 -10.58335
 Alpha  occ. eigenvalues --  -10.57678 -10.56667 -10.55502 -10.54154  -8.60972
 Alpha  occ. eigenvalues --   -6.53407  -6.53394  -6.52950  -1.48923  -1.39178
 Alpha  occ. eigenvalues --   -1.39070  -1.36082  -1.34728  -1.18976  -1.07438
 Alpha  occ. eigenvalues --   -1.04043  -0.99090  -0.93142  -0.89175  -0.87240
 Alpha  occ. eigenvalues --   -0.85515  -0.79038  -0.74725  -0.73956  -0.72702
 Alpha  occ. eigenvalues --   -0.72253  -0.69434  -0.69205  -0.67337  -0.64695
 Alpha  occ. eigenvalues --   -0.63356  -0.62237  -0.61310  -0.60693  -0.57456
 Alpha  occ. eigenvalues --   -0.56794  -0.56116  -0.54529  -0.54521  -0.54431
 Alpha  occ. eigenvalues --   -0.54358  -0.54163  -0.53870  -0.53117  -0.51852
 Alpha  occ. eigenvalues --   -0.51522  -0.51129  -0.50578  -0.50543  -0.49599
 Alpha  occ. eigenvalues --   -0.48518  -0.47124  -0.45642  -0.44416  -0.43321
 Alpha  occ. eigenvalues --   -0.43115  -0.41241  -0.40567  -0.39483  -0.35710
 Alpha  occ. eigenvalues --   -0.33307  -0.32897  -0.28868
 Alpha virt. eigenvalues --   -0.01054  -0.00658   0.00053   0.00339   0.02704
 Alpha virt. eigenvalues --    0.03042   0.03411   0.03788   0.04240   0.04619
 Alpha virt. eigenvalues --    0.04984   0.05335   0.05804   0.06590   0.06850

 Mulliken charges:
               1
     1  C   -0.742563
     2  C   -0.321863
     3  C   -0.211989
     4  N   -0.622940
     5  C    0.793382
     6  O   -0.600361
     7  N   -0.654433
     8  C    0.053481
     9  C    0.710180
    10  C   -0.532777
    11  C   -0.563085
    12  C   -0.230218
    13  C   -0.323209
    14  H    0.218632
    15  H    0.219852
    16  H    0.218120
    17  H    0.229677
    18  H    0.211364
    19  H    0.222551
    20  H    0.245688
    21  H    0.412947
    22  H    0.438935
    23  H    0.282760
    24  H    0.225006
    25  H    0.262962
    26  S    2.293125
    27  H    0.263713
    28  F   -0.499260
    29  F   -0.499962
    30  F   -0.499883
    31  F   -0.499682
    32  F   -0.500148
 Sum of Mulliken charges =  -0.00000

 Dipole moment (field-independent basis, Debye):
    X=             -8.0531    Y=              4.8007    Z=             -0.7572  Tot=              9.4060
 Quadrupole moment (field-independent basis, Debye-Ang):
   XX=           -113.7729   YY=           -110.3297   ZZ=           -122.2755
   XY=            -12.0496   XZ=              3.2823   YZ=             -0.4425

  Exact polarizability: 260.748  -1.199 170.967   1.315   0.638 116.327
 Approx polarizability: 225.171  -2.455 203.780   1.134   0.041 135.653

                      1                      2                      3
                      A                      A                      A
 Frequencies --     20.6651                25.6882                53.0375
 Red. masses --      5.2750                 2.9351                 3.3974
 Frc consts  --      0.0013                 0.0011                 0.0056
 IR Inten    --      1.6578                 3.3733                 5.0095

                      4                      5                      6
                      A                      A                      A
 Frequencies --     54.6354                61.9761                67.3172
 Red. masses --      4.7121                 4.0745                 3.4627
 Frc consts  --      0.0083                 0.0092                 0.0092
 IR Inten    --      0.5482                 0.2668                 5.7943

                      7                      8                      9
                      A                      A                      A
 Frequencies --    104.5970               119.6543               169.3780
 Red. masses --      6.0446                 6.6550                 7.3021
 Frc consts  --      0.0390                 0.0561                 0.1234
 IR Inten    --      0.1986                 5.7170                 1.9200

                     10                     11                     12
                      A                      A                      A
 Frequencies --    182.7752               206.6454               220.5879
 Red. masses --      4.0007                 4.5978                 4.4769
 Frc consts  --      0.0787                 0.1157                 0.1283
 IR Inten    --      5.8960                 8.6553                 0.3031

                     13                     14                     15
                      A                      A                      A
 Frequencies --    235.7129               288.9426               329.7300
 Red. masses --      1.1983                 6.3241                 3.8315
 Frc consts  --      0.0392                 0.3111                 0.2454
 IR Inten    --      0.1128                 1.3409                17.1297

                     16                     17                     18
                      A                      A                      A
 Frequencies --    334.1847               335.5369               338.4389
 Red. masses --      6.2477                 2.6006                18.1951
 Frc consts  --      0.4111                 0.1725                 1.2279
 IR Inten    --     22.1370                62.7395                 0.1610

                     19                     20                     21
                      A                      A                      A
 Frequencies --    360.1921               383.8666               416.9966
 Red. masses --      2.1595                 6.3970                 3.0761
 Frc consts  --      0.1651                 0.5554                 0.3152
 IR Inten    --     28.7045                 6.8171                 0.0515

                     22                     23                     24
                      A                      A                      A
 Frequencies --    437.9842               440.4168               453.9640
 Red. masses --      7.2789                 7.8487                18.8068
 Frc consts  --      0.8227                 0.8970                 2.2835
 IR Inten    --      1.1535                 0.9744                 0.6990

                     25                     26                     27
                      A                      A                      A
 Frequencies --    497.1029               533.9147               535.4453
 Red. masses --      3.6481                 3.2006                 1.3832
 Frc consts  --      0.5311                 0.5376                 0.2336
 IR Inten    --     33.9638                34.5340               108.4480

                     28                     29                     30
                      A                      A                      A
 Frequencies --    554.7820               565.2657               590.6693
 Red. masses --     17.7524                 4.7623                15.5980
 Frc consts  --      3.2192                 0.8965                 3.2063
 IR Inten    --     12.2153                54.0411               118.7633

                     31                     32                     33
                      A                      A                      A
 Frequencies --    612.6959               637.9093               656.0553
 Red. masses --     18.7854                 7.0421                10.4746
 Frc consts  --      4.1549                 1.6884                 2.6562
 IR Inten    --      0.0346                 1.8760                16.5243

                     34                     35                     36
                      A                      A                      A
 Frequencies --    687.8861               722.9941               754.1388
 Red. masses --      9.1565                 4.0311                 1.6065
 Frc consts  --      2.5528                 1.2415                 0.5383
 IR Inten    --      2.3555                 0.1184                10.6057

                     37                     38                     39
                      A                      A                      A
 Frequencies --    766.1960               787.4060               840.5090
 Red. masses --      2.4292                 5.6326                 1.3741
 Frc consts  --      0.8402                 2.0576                 0.5720
 IR Inten    --      4.2235                46.7858                23.0948

                     40                     41                     42
                      A                      A                      A
 Frequencies --    844.6453               868.2578               882.0447
 Red. masses --     10.1233                 1.4764                 6.5028
 Frc consts  --      4.2552                 0.6558                 2.9808
 IR Inten    --    468.2388                41.6371               214.6270

                     43                     44                     45
                      A                      A                      A
 Frequencies --    883.5257               891.4591               900.0400
 Red. masses --     24.4063                18.6792                 1.1956
 Frc consts  --     11.2251                 8.7460                 0.5707
 IR Inten    --    489.4622               393.7648                 7.5774

                     46                     47                     48
                      A                      A                      A
 Frequencies --    933.3833               980.5098              1007.7063
 Red. masses --      1.6881                 1.3210                 1.3242
 Frc consts  --      0.8665                 0.7483                 0.7922
 IR Inten    --      7.8638                 0.0310                 0.3805

                     49                     50                     51
                      A                      A                      A
 Frequencies --   1027.3732              1047.5755              1082.0167
 Red. masses --      3.6794                 4.2002                 2.5664
 Frc consts  --      2.2882                 2.7157                 1.7703
 IR Inten    --     15.3653                 4.1092                 3.3588

                     52                     53                     54
                      A                      A                      A
 Frequencies --   1137.7626              1148.2919              1164.1795
 Red. masses --      2.9819                 2.3341                 2.2199
 Frc consts  --      2.2743                 1.8133                 1.7727
 IR Inten    --    106.2295                 9.1056                 2.4914

                     55                     56                     57
                      A                      A                      A
 Frequencies --   1172.7790              1181.9749              1223.4744
 Red. masses --      1.4375                 1.8556                 1.1806
 Frc consts  --      1.1649                 1.5274                 1.0412
 IR Inten    --      8.9871                 5.2555                67.7934

                     58                     59                     60
                      A                      A                      A
 Frequencies --   1251.3295              1280.5699              1309.8678
 Red. masses --      1.5954                 1.2833                 2.5078
 Frc consts  --      1.4719                 1.2398                 2.5351
 IR Inten    --    315.0199               127.3107                 3.8871

                     61                     62                     63
                      A                      A                      A
 Frequencies --   1326.1993              1344.1058              1349.2828
 Red. masses --      1.1495                 1.3911                 1.3593
 Frc consts  --      1.1912                 1.4807                 1.4580
 IR Inten    --     18.3192                 6.8647                20.3257

                     64                     65                     66
                      A                      A                      A
 Frequencies --   1371.2623              1424.5318              1435.8173
 Red. masses --      5.4316                 1.5080                 1.3384
 Frc consts  --      6.0176                 1.8031                 1.6257
 IR Inten    --    190.9130                 1.1542                 1.7958

                     67                     68                     69
                      A                      A                      A
 Frequencies --   1458.4132              1507.8416              1518.8751
 Red. masses --      2.9702                 1.0604                 1.0402
 Frc consts  --      3.7221                 1.4205                 1.4139
 IR Inten    --     75.7793                 8.8441                13.7030

                     70                     71                     72
                      A                      A                      A
 Frequencies --   1521.8410              1534.2853              1551.1937
 Red. masses --      1.0746                 1.0957                 1.8271
 Frc consts  --      1.4663                 1.5197                 2.5902
 IR Inten    --      4.3122                 7.5195               562.4584

                     73                     74                     75
                      A                      A                      A
 Frequencies --   1564.7250              1591.7021              1676.5391
 Red. masses --      2.4166                 2.2086                 5.2043
 Frc consts  --      3.4861                 3.2968                 8.6187
 IR Inten    --     14.3421               975.2839               106.0443

                     76                     77                     78
                      A                      A                      A
 Frequencies --   1684.0868              1806.7244              3059.1008
 Red. masses --      5.6021                 7.9678                 1.0688
 Frc consts  --      9.3612                15.3241                 5.8929
 IR Inten    --     39.8329               374.9888                26.0675

                     79                     80                     81
                      A                      A                      A
 Frequencies --   3062.9553              3079.6032              3106.9972
 Red. masses --      1.0656                 1.0366                 1.0979
 Frc consts  --      5.8902                 5.7924                 6.2445
 IR Inten    --     46.5749                34.0214                19.0841

                     82                     83                     84
                      A                      A                      A
 Frequencies --   3145.7445              3151.8905              3158.8212
 Red. masses --      1.0984                 1.1004                 1.1020
 Frc consts  --      6.4041                 6.4409                 6.4784
 IR Inten    --      3.4559                59.2772                33.0066

                     85                     86                     87
                      A                      A                      A
 Frequencies --   3219.8578              3255.1183              3259.3257
 Red. masses --      1.0907                 1.0924                 1.0942
 Frc consts  --      6.6622                 6.8198                 6.8485
 IR Inten    --      7.5232                 0.6062                 0.6451

                     88                     89                     90
                      A                      A                      A
 Frequencies --   3299.7793              3620.3436              3632.0168
 Red. masses --      1.0935                 1.0782                 1.0774
 Frc consts  --      7.0149                 8.3261                 8.3741
 IR Inten    --     13.8927                17.2007                81.6059

 - Thermochemistry -
 -------------------
 Temperature   298.150 Kelvin.  Pressure   1.00000 Atm.
 Atom     1 has atomic number  6 and mass  12.00000

 Molecular mass:   304.06688 amu.
 Principal axes and moments of inertia in atomic units:
                           1         2         3
     Eigenvalues --  1284.21119********************
           X            1.00000   0.00089   0.00029
           Y           -0.00089   1.00000   0.00183
           Z           -0.00029  -0.00183   1.00000
 This molecule is an asymmetric top.
 Rotational symmetry number  1.
 Warning -- assumption of classical behavior for rotation
           may cause significant error
 Rotational temperatures (Kelvin)      0.06745     0.00478     0.00465
 Rotational constants (GHZ):           1.40533     0.09968     0.09681
 Zero-point vibrational energy     629975.3 (Joules/Mol)
                                  150.56770 (Kcal/Mol)
 Warning -- explicit consideration of  31 degrees of freedom as
           vibrations may cause significant error
 Vibrational temperatures:     29.73    36.96    76.31    78.61    89.17
          (Kelvin)             96.85   150.49   172.16   243.70   262.97
                              297.32   317.38   339.14   415.72   474.41
                              480.82   482.76   486.94   518.24   552.30
                              599.96   630.16   633.66   653.15   715.22
                              768.18   770.39   798.21   813.29   849.84
                              881.53   917.81   943.92   989.71  1040.23
                             1085.04  1102.38  1132.90  1209.30  1215.25
                             1249.23  1269.06  1271.19  1282.61  1294.96
                             1342.93  1410.73  1449.86  1478.16  1507.23
                             1556.78  1636.98  1652.13  1674.99  1687.37
                             1700.60  1760.30  1800.38  1842.45  1884.61
                             1908.10  1933.87  1941.31  1972.94  2049.58
                             2065.82  2098.33  2169.45  2185.32  2189.59
                             2207.49  2231.82  2251.29  2290.10  2412.16
                             2423.02  2599.47  4401.36  4406.90  4430.86
                             4470.27  4526.02  4534.86  4544.83  4632.65
                             4683.38  4689.44  4747.64  5208.86  5225.66

 Zero-point correction=                           0.239945 (Hartree/Particle)
 Thermal correction to Energy=                    0.258700
 Thermal correction to Enthalpy=                  0.259644
 Thermal correction to Gibbs Free Energy=         0.190668
 Sum of electronic and zero-point Energies=          -1470.306335
 Sum of electronic and thermal Energies=             -1470.287580
 Sum of electronic and thermal Enthalpies=           -1470.286636
 Sum of electronic and thermal Free Energies=        -1470.355612

                     E (Thermal)             CV                S
                      KCal/Mol        Cal/Mol-Kelvin    Cal/Mol-Kelvin
 Total                  162.337             70.255            145.173
 Electronic               0.000              0.000              0.000
 Translational            0.889              2.981             43.033
 Rotational               0.889              2.981             34.427
 Vibrational            160.559             64.293             67.713
 Vibration     1          0.593              1.986              6.569
 Vibration     2          0.593              1.985              6.137
 Vibration     3          0.596              1.976              4.701
 Vibration     4          0.596              1.976              4.642
 Vibration     5          0.597              1.972              4.393
 Vibration     6          0.598              1.970              4.230
 Vibration     7          0.605              1.946              3.367
 Vibration     8          0.609              1.933              3.106
 Vibration     9          0.625              1.880              2.442
 Vibration    10          0.630              1.863              2.300
 Vibration    11          0.641              1.830              2.073
 Vibration    12          0.647              1.810              1.954
 Vibration    13          0.655              1.786              1.835
 Vibration    14          0.686              1.694              1.480
 Vibration    15          0.713              1.616              1.261
 Vibration    16          0.716              1.607              1.240
 Vibration    17          0.717              1.605              1.233
 Vibration    18          0.719              1.599              1.220
 Vibration    19          0.735              1.554              1.121
 Vibration    20          0.753              1.505              1.024
 Vibration    21          0.780              1.433              0.902
 Vibration    22          0.798              1.387              0.833
 Vibration    23          0.800              1.382              0.825
 Vibration    24          0.812              1.352              0.784
 Vibration    25          0.853              1.256              0.665
 Vibration    26          0.889              1.175              0.579
 Vibration    27          0.890              1.172              0.575
 Vibration    28          0.910              1.129              0.534
 Vibration    29          0.921              1.106              0.513
 Vibration    30          0.948              1.052              0.466
 Vibration    31          0.972              1.005              0.428

 Normal termination of Gaussian 09 at Mon Feb 25 14:20:23 2019.
