 Gaussian 09, Revision E.01,

 ----------------------------------------------------------------------
 # M062X/Gen 6D SCF=Tight INT(grid=ultrafine) OPT IOP(2/17=4) SCRF=(SMD
 ,Solvent=h2o) maxdisk=2147483648
 ----------------------------------------------------------------------

 ----------------------------
 4SF5.M062X_6-31pGd_opt_water
 ----------------------------
 Symbolic Z-matrix:
 Charge =  0 Multiplicity = 1

 SCF Done:  E(RM062X) =  -1470.51168595     A.U. after   15 cycles
 SCF Done:  E(RM062X) =  -1470.54195467     A.U. after   12 cycles
 SCF Done:  E(RM062X) =  -1470.54949371     A.U. after   12 cycles
 SCF Done:  E(RM062X) =  -1470.55005859     A.U. after   12 cycles
 SCF Done:  E(RM062X) =  -1470.55018619     A.U. after   11 cycles
 SCF Done:  E(RM062X) =  -1470.55019033     A.U. after   10 cycles
 SCF Done:  E(RM062X) =  -1470.55019255     A.U. after    9 cycles
 SCF Done:  E(RM062X) =  -1470.55019347     A.U. after    9 cycles
 SCF Done:  E(RM062X) =  -1470.55019516     A.U. after   10 cycles
 SCF Done:  E(RM062X) =  -1470.55009241     A.U. after   12 cycles
 SCF Done:  E(RM062X) =  -1470.55022417     A.U. after   10 cycles
 SCF Done:  E(RM062X) =  -1470.55022554     A.U. after   10 cycles
 SCF Done:  E(RM062X) =  -1470.55022729     A.U. after   10 cycles
 SCF Done:  E(RM062X) =  -1470.55022817     A.U. after   10 cycles
 SCF Done:  E(RM062X) =  -1470.55022829     A.U. after    9 cycles
 SCF Done:  E(RM062X) =  -1470.55022832     A.U. after    9 cycles
 SCF Done:  E(RM062X) =  -1470.55022827     A.U. after    8 cycles
 SCF Done:  E(RM062X) =  -1470.55022827     A.U. after    8 cycles
 Optimization completed.
    -- Stationary point found.
 Normal termination of Gaussian 09 at Tue Oct 30 13:54:44 2018.
 Gaussian 09:  ES64L-G09RevE.01 30-Nov-2015

 ----------------------------------------------------------------------
 # M062X/Gen 6D SCF=Tight INT(grid=ultrafine) OPT IOP(2/17=4) SCRF=(SMD
 ,Solvent=h2o) Freq=Noraman maxdisk=2147483648 geom=check guess=read IO
 P(2/17=4)
 ----------------------------------------------------------------------

 ----------------------------
 4SF5.M062X_6-31pGd_opt_water
 ----------------------------
 Structure from the checkpoint file:  "4SF5.M062X_6-31pGd_opt_water.chk"
 Charge =  0 Multiplicity = 1

 SCF Done:  E(RM062X) =  -1470.55022827     A.U. after    1 cycles
 Optimization completed.
    -- Stationary point found.
 Normal termination of Gaussian 09 at Tue Oct 30 13:55:59 2018.

 ----------------------------------------------------------------------
 #N Geom=AllCheck Guess=TCheck SCRF=Check Test GenChk RM062X/ChkBas Fre
 q
 ----------------------------------------------------------------------

 Structure from the checkpoint file:  "4SF5.M062X_6-31pGd_opt_water.chk"
 ----------------------------
 4SF5.M062X_6-31pGd_opt_water
 ----------------------------
 Charge =  0 Multiplicity = 1

                         Standard orientation:
 ---------------------------------------------------------------------
 Center     Atomic      Atomic             Coordinates (Angstroms)
 Number     Number       Type             X           Y           Z
 ---------------------------------------------------------------------
      1          6           0       -8.146852   -0.345805   -0.037826
      2          6           0       -6.871475    0.490706   -0.039753
      3          6           0       -5.636214   -0.395287    0.012511
      4          7           0       -4.427641    0.419966   -0.003076
      5          6           0       -3.205276   -0.148302    0.050859
      6          8           0       -3.047883   -1.371590    0.175446
      7          7           0       -2.152371    0.744349   -0.028351
      8          6           0       -0.786361    0.470604   -0.014749
      9          6           0       -0.237397   -0.819732   -0.077412
     10          6           0        0.075622    1.580305    0.045309
     11          6           0        1.450632    1.417383    0.048759
     12          6           0        1.969994    0.126567   -0.009325
     13          6           0        1.143413   -0.987702   -0.073730
     14          1           0       -9.034585    0.292542   -0.072456
     15          1           0       -8.209218   -0.962073    0.865838
     16          1           0       -8.177684   -1.014531   -0.905076
     17          1           0       -6.865889    1.169831    0.821400
     18          1           0       -6.832395    1.112015   -0.943107
     19          1           0       -5.628637   -1.082655   -0.842451
     20          1           0       -5.646393   -1.003457    0.923723
     21          1           0       -4.519129    1.412963   -0.188583
     22          1           0       -2.393801    1.730616   -0.052238
     23          1           0       -0.875284   -1.689250   -0.133242
     24          1           0       -0.342347    2.582062    0.089676
     25          1           0        2.095074    2.288564    0.097454
     26         16           0        3.754586   -0.100354   -0.003418
     27          1           0        1.552131   -1.991363   -0.125038
     28          9           0        3.975721    0.952771    1.205381
     29          9           0        5.362194   -0.303002    0.002088
     30          9           0        3.690923   -1.312510    1.066466
     31          9           0        3.715657   -1.176092   -1.211505
     32          9           0        4.001219    1.088888   -1.072725
 ---------------------------------------------------------------------

 SCF Done:  E(RM062X) =  -1470.55022827     A.U. after    1 cycles

 The electronic state is 1-A.
 Alpha  occ. eigenvalues --  -90.32965 -25.30985 -25.30982 -25.30979 -25.30972
 Alpha  occ. eigenvalues --  -25.30856 -19.62612 -14.80851 -14.78919 -10.69700
 Alpha  occ. eigenvalues --  -10.62397 -10.60492 -10.58264 -10.58209 -10.57751
 Alpha  occ. eigenvalues --  -10.56924 -10.56549 -10.54215 -10.52975  -8.61642
 Alpha  occ. eigenvalues --   -6.54070  -6.54056  -6.53602  -1.49612  -1.39916
 Alpha  occ. eigenvalues --   -1.39830  -1.36805  -1.35506  -1.18656  -1.06875
 Alpha  occ. eigenvalues --   -1.03515  -0.99088  -0.93524  -0.88411  -0.86922
 Alpha  occ. eigenvalues --   -0.85311  -0.78517  -0.74611  -0.74148  -0.73460
 Alpha  occ. eigenvalues --   -0.72417  -0.68960  -0.68603  -0.66925  -0.64067
 Alpha  occ. eigenvalues --   -0.63817  -0.62133  -0.61966  -0.61245  -0.58265
 Alpha  occ. eigenvalues --   -0.56571  -0.55995  -0.55315  -0.55230  -0.54999
 Alpha  occ. eigenvalues --   -0.54559  -0.54041  -0.53831  -0.52536  -0.52234
 Alpha  occ. eigenvalues --   -0.51934  -0.51498  -0.51363  -0.50475  -0.49474
 Alpha  occ. eigenvalues --   -0.47483  -0.46671  -0.45164  -0.44558  -0.42861
 Alpha  occ. eigenvalues --   -0.42010  -0.40011  -0.39806  -0.38975  -0.36105
 Alpha  occ. eigenvalues --   -0.33187  -0.32751  -0.28426
 Alpha virt. eigenvalues --   -0.01715  -0.00672   0.00586   0.01629   0.03196
 Alpha virt. eigenvalues --    0.03630   0.03925   0.04003   0.04220   0.04713
 Alpha virt. eigenvalues --    0.04874   0.05436   0.05829   0.06979   0.07383

 Mulliken charges:
               1
     1  C   -0.747911
     2  C   -0.375878
     3  C   -0.210148
     4  N   -0.689486
     5  C    0.880063
     6  O   -0.755083
     7  N   -0.638569
     8  C    0.034724
     9  C    0.728892
    10  C   -0.519306
    11  C   -0.566253
    12  C   -0.204308
    13  C   -0.430133
    14  H    0.223871
    15  H    0.222291
    16  H    0.222666
    17  H    0.235373
    18  H    0.233992
    19  H    0.236318
    20  H    0.240215
    21  H    0.483172
    22  H    0.496861
    23  H    0.283307
    24  H    0.270289
    25  H    0.288679
    26  S    2.293193
    27  H    0.285441
    28  F   -0.501395
    29  F   -0.512368
    30  F   -0.504298
    31  F   -0.503052
    32  F   -0.501157
 Sum of Mulliken charges =  -0.00000

 Dipole moment (field-independent basis, Debye):
    X=             -9.3785    Y=              7.1006    Z=             -0.8250  Tot=             11.7922
 Quadrupole moment (field-independent basis, Debye-Ang):
   XX=           -112.5931   YY=           -109.0871   ZZ=           -122.7793
   XY=            -18.3114   XZ=              2.9803   YZ=              0.7510

  Exact polarizability: 295.306  -1.231 224.673   0.384   0.964 150.629
 Approx polarizability: 229.101  -2.463 201.154   0.413   0.922 135.737

                      1                      2                      3
                      A                      A                      A
 Frequencies --     20.1045                29.7562                47.4132
 Red. masses --      5.1607                 3.1559                 3.4804
 Frc consts  --      0.0012                 0.0016                 0.0046
 IR Inten    --      0.1907                 8.0094                11.2535

                      4                      5                      6
                      A                      A                      A
 Frequencies --     57.0751                61.4458                67.5657
 Red. masses --      5.0866                 3.8525                 3.4442
 Frc consts  --      0.0098                 0.0086                 0.0093
 IR Inten    --      1.5706                 5.6427                19.7903

                      7                      8                      9
                      A                      A                      A
 Frequencies --     98.4667               125.1128               151.1349
 Red. masses --      7.7303                 6.7358                 2.8470
 Frc consts  --      0.0442                 0.0621                 0.0383
 IR Inten    --      0.8182                 3.8848                19.3819

                     10                     11                     12
                      A                      A                      A
 Frequencies --    171.1716               204.8539               216.2498
 Red. masses --      8.4034                 5.9584                 6.8898
 Frc consts  --      0.1451                 0.1473                 0.1898
 IR Inten    --      0.5403                 9.7797                 2.2349

                     13                     14                     15
                      A                      A                      A
 Frequencies --    244.8027               290.4261               330.0771
 Red. masses --      1.1202                 6.7843                 6.6640
 Frc consts  --      0.0396                 0.3372                 0.4278
 IR Inten    --      0.3881                 2.5501                 2.3833

                     16                     17                     18
                      A                      A                      A
 Frequencies --    332.9802               338.3724               346.5107
 Red. masses --      7.6837                18.5282                 2.0899
 Frc consts  --      0.5019                 1.2499                 0.1478
 IR Inten    --      2.6359                 0.0035                75.2883

                     19                     20                     21
                      A                      A                      A
 Frequencies --    358.4192               382.7678               416.5201
 Red. masses --      1.6149                 7.3413                 3.0539
 Frc consts  --      0.1222                 0.6337                 0.3122
 IR Inten    --     62.8963                14.1788                 0.1995

                     22                     23                     24
                      A                      A                      A
 Frequencies --    438.1082               440.4838               451.7897
 Red. masses --      7.6628                 7.3948                18.7296
 Frc consts  --      0.8666                 0.8453                 2.2524
 IR Inten    --      1.0337                 0.8756                 1.1696

                     25                     26                     27
                      A                      A                      A
 Frequencies --    487.5483               532.2485               550.6033
 Red. masses --      4.1767                 4.5818                 1.3074
 Frc consts  --      0.5850                 0.7647                 0.2335
 IR Inten    --     29.1453                12.2620               249.8529

                     28                     29                     30
                      A                      A                      A
 Frequencies --    552.4936               560.7021               583.4524
 Red. masses --      8.1032                 4.6927                16.1556
 Frc consts  --      1.4573                 0.8692                 3.2403
 IR Inten    --     44.7906                54.3686               159.6151

                     31                     32                     33
                      A                      A                      A
 Frequencies --    605.0666               635.1596               644.6589
 Red. masses --     18.8301                 7.3282                11.4805
 Frc consts  --      4.0617                 1.7419                 2.8111
 IR Inten    --      0.0008                 6.7885                41.3888

                     34                     35                     36
                      A                      A                      A
 Frequencies --    686.0185               721.0884               759.4726
 Red. masses --      9.0516                 3.9955                 1.7436
 Frc consts  --      2.5098                 1.2241                 0.5925
 IR Inten    --      1.0401                 0.0541                22.0646

                     37                     38                     39
                      A                      A                      A
 Frequencies --    769.9771               781.7117               822.9734
 Red. masses --      2.0769                 7.1519                12.2588
 Frc consts  --      0.7255                 2.5749                 4.8918
 IR Inten    --      2.9056                91.3374               652.7896

                     40                     41                     42
                      A                      A                      A
 Frequencies --    840.9950               845.2869               856.5666
 Red. masses --      1.2768                 9.9008                22.0041
 Frc consts  --      0.5321                 4.1680                 9.5121
 IR Inten    --     21.7013               759.0126               629.1988

                     43                     44                     45
                      A                      A                      A
 Frequencies --    857.5620               878.9724               910.3004
 Red. masses --      1.8313                 5.6305                 1.1514
 Frc consts  --      0.7935                 2.5630                 0.5621
 IR Inten    --     15.7870                86.2952                 3.1553

                     46                     47                     48
                      A                      A                      A
 Frequencies --    934.3339               985.8580              1002.3147
 Red. masses --      1.6724                 1.3073                 1.3426
 Frc consts  --      0.8602                 0.7486                 0.7947
 IR Inten    --      8.3277                 1.0994                 0.0170

                     49                     50                     51
                      A                      A                      A
 Frequencies --   1023.3741              1051.6652              1084.9741
 Red. masses --      3.6849                 4.2312                 2.5930
 Frc consts  --      2.2738                 2.7572                 1.7984
 IR Inten    --     22.3780                 6.6256                 2.5950

                     52                     53                     54
                      A                      A                      A
 Frequencies --   1131.8468              1147.0343              1167.4895
 Red. masses --      2.9208                 2.1603                 1.5890
 Frc consts  --      2.2046                 1.6746                 1.2761
 IR Inten    --    155.9406                14.5442                12.7025

                     55                     56                     57
                      A                      A                      A
 Frequencies --   1175.1127              1183.0602              1218.4932
 Red. masses --      2.5156                 1.6516                 1.1671
 Frc consts  --      2.0467                 1.3619                 1.0209
 IR Inten    --      0.9398                 1.4162                58.7620

                     58                     59                     60
                      A                      A                      A
 Frequencies --   1269.9732              1284.3899              1311.0619
 Red. masses --      1.5794                 1.2087                 2.4515
 Frc consts  --      1.5009                 1.1748                 2.4827
 IR Inten    --    457.0970                36.0995                12.3224

                     61                     62                     63
                      A                      A                      A
 Frequencies --   1330.6098              1343.1399              1352.4194
 Red. masses --      1.0745                 1.4429                 1.4665
 Frc consts  --      1.1209                 1.5336                 1.5804
 IR Inten    --      1.6366                20.2514                28.9916

                     64                     65                     66
                      A                      A                      A
 Frequencies --   1373.8484              1422.2279              1432.1856
 Red. masses --      5.2324                 1.2773                 1.6444
 Frc consts  --      5.8187                 1.5222                 1.9872
 IR Inten    --    287.2228                 4.6871                10.0717

                     67                     68                     69
                      A                      A                      A
 Frequencies --   1455.3388              1492.2773              1504.2495
 Red. masses --      3.1028                 1.0575                 1.0393
 Frc consts  --      3.8720                 1.3875                 1.3856
 IR Inten    --    114.7629                13.2525                11.8378

                     70                     71                     72
                      A                      A                      A
 Frequencies --   1512.9083              1533.3270              1548.7411
 Red. masses --      1.0874                 1.0944                 2.2239
 Frc consts  --      1.4664                 1.5160                 3.1429
 IR Inten    --     19.8974                75.6396               909.0579

                     73                     74                     75
                      A                      A                      A
 Frequencies --   1563.3498              1588.4235              1668.1244
 Red. masses --      2.3792                 2.4022                 7.1768
 Frc consts  --      3.4261                 3.5710                11.7662
 IR Inten    --    209.3568               932.2111               155.0998

                     76                     77                     78
                      A                      A                      A
 Frequencies --   1679.8079              1710.1313              3074.7627
 Red. masses --      4.4683                 3.8501                 1.0602
 Frc consts  --      7.4287                 6.6341                 5.9056
 IR Inten    --     37.1912               767.6753                 9.5097

                     79                     80                     81
                      A                      A                      A
 Frequencies --   3077.8838              3082.3789              3109.1395
 Red. masses --      1.0371                 1.0590                 1.1024
 Frc consts  --      5.7885                 5.9281                 6.2786
 IR Inten    --     24.5401               103.0682                 2.2478

                     82                     83                     84
                      A                      A                      A
 Frequencies --   3128.9045              3148.2846              3157.9089
 Red. masses --      1.1068                 1.1041                 1.1022
 Frc consts  --      6.3840                 6.4475                 6.4763
 IR Inten    --     48.9244                96.8037                46.9869

                     85                     86                     87
                      A                      A                      A
 Frequencies --   3234.4221              3256.0487              3261.6412
 Red. masses --      1.0918                 1.0929                 1.0948
 Frc consts  --      6.7296                 6.8269                 6.8621
 IR Inten    --      2.3076                 0.9109                 1.9083

                     88                     89                     90
                      A                      A                      A
 Frequencies --   3308.9285              3598.6330              3620.0249
 Red. masses --      1.0931                 1.0788                 1.0796
 Frc consts  --      7.0519                 8.2311                 8.3359
 IR Inten    --     10.9836                63.8848               230.8606

 - Thermochemistry -
 -------------------
 Temperature   298.150 Kelvin.  Pressure   1.00000 Atm.
 Atom     1 has atomic number  6 and mass  12.00000

 Molecular mass:   304.06688 amu.
 Principal axes and moments of inertia in atomic units:
                           1         2         3
     Eigenvalues --  1284.19043********************
           X            1.00000   0.00069   0.00052
           Y           -0.00069   0.99999   0.00345
           Z           -0.00051  -0.00345   0.99999
 This molecule is an asymmetric top.
 Rotational symmetry number  1.
 Warning -- assumption of classical behavior for rotation
           may cause significant error
 Rotational temperatures (Kelvin)      0.06745     0.00478     0.00465
 Rotational constants (GHZ):           1.40535     0.09968     0.09681
 Zero-point vibrational energy     628311.7 (Joules/Mol)
                                  150.17011 (Kcal/Mol)
 Warning -- explicit consideration of  31 degrees of freedom as
           vibrations may cause significant error
 Vibrational temperatures:     28.93    42.81    68.22    82.12    88.41
          (Kelvin)             97.21   141.67   180.01   217.45   246.28
                              294.74   311.13   352.22   417.86   474.91
                              479.08   486.84   498.55   515.68   550.72
                              599.28   630.34   633.76   650.02   701.47
                              765.79   792.19   794.91   806.72   839.46
                              870.55   913.85   927.52   987.03  1037.48
                             1092.71  1107.82  1124.71  1184.07  1210.00
                             1216.18  1232.41  1233.84  1264.64  1309.72
                             1344.30  1418.43  1442.11  1472.41  1513.11
                             1561.03  1628.47  1650.32  1679.75  1690.72
                             1702.16  1753.14  1827.21  1847.95  1886.32
                             1914.45  1932.48  1945.83  1976.66  2046.27
                             2060.59  2093.91  2147.05  2164.28  2176.73
                             2206.11  2228.29  2249.31  2285.38  2400.06
                             2416.87  2460.49  4423.89  4428.38  4434.85
                             4473.35  4501.79  4529.67  4543.52  4653.61
                             4684.72  4692.77  4760.80  5177.62  5208.40

 Zero-point correction=                           0.239311 (Hartree/Particle)
 Thermal correction to Energy=                    0.258148
 Thermal correction to Enthalpy=                  0.259092
 Thermal correction to Gibbs Free Energy=         0.189950
 Sum of electronic and zero-point Energies=          -1470.310917
 Sum of electronic and thermal Energies=             -1470.292081
 Sum of electronic and thermal Enthalpies=           -1470.291137
 Sum of electronic and thermal Free Energies=        -1470.360278

                     E (Thermal)             CV                S
                      KCal/Mol        Cal/Mol-Kelvin    Cal/Mol-Kelvin
 Total                  161.990             70.497            145.521
 Electronic               0.000              0.000              0.000
 Translational            0.889              2.981             43.033
 Rotational               0.889              2.981             34.427
 Vibrational            160.213             64.535             68.061
 Vibration     1          0.593              1.986              6.624
 Vibration     2          0.594              1.984              5.846
 Vibration     3          0.595              1.979              4.922
 Vibration     4          0.596              1.975              4.556
 Vibration     5          0.597              1.973              4.410
 Vibration     6          0.598              1.970              4.223
 Vibration     7          0.604              1.950              3.484
 Vibration     8          0.610              1.928              3.020
 Vibration     9          0.619              1.901              2.658
 Vibration    10          0.626              1.878              2.423
 Vibration    11          0.640              1.833              2.089
 Vibration    12          0.645              1.816              1.990
 Vibration    13          0.660              1.771              1.768
 Vibration    14          0.686              1.692              1.471
 Vibration    15          0.713              1.615              1.260
 Vibration    16          0.715              1.610              1.246
 Vibration    17          0.719              1.599              1.220
 Vibration    18          0.725              1.582              1.182
 Vibration    19          0.733              1.558              1.129
 Vibration    20          0.752              1.507              1.028
 Vibration    21          0.780              1.434              0.904
 Vibration    22          0.798              1.387              0.833
 Vibration    23          0.800              1.382              0.825
 Vibration    24          0.810              1.357              0.790
 Vibration    25          0.843              1.278              0.690
 Vibration    26          0.887              1.179              0.582
 Vibration    27          0.906              1.138              0.543
 Vibration    28          0.908              1.134              0.539
 Vibration    29          0.916              1.116              0.522
 Vibration    30          0.940              1.067              0.479
 Vibration    31          0.964              1.021              0.441

 Optimization completed.
    -- Stationary point found.
 Normal termination of Gaussian 09 at Tue Oct 30 14:53:42 2018.
