 Gaussian 09, Revision E.01,

 ----------------------------------------------------------------------
 # M062X/Gen 6D SCF=Tight INT(grid=ultrafine) OPT IOP(2/17=4) maxdisk=2
 147483648
 ----------------------------------------------------------------------

 -------------------------
 4SF5_a1.M062X_6-31pGd_opt
 -------------------------
 Symbolic Z-matrix:
 Charge = -1 Multiplicity = 1

 SCF Done:  E(RM062X) =  -1469.99048176     A.U. after   19 cycles
 SCF Done:  E(RM062X) =  -1469.99331374     A.U. after   15 cycles
 SCF Done:  E(RM062X) =  -1469.99377195     A.U. after   15 cycles
 SCF Done:  E(RM062X) =  -1469.99479927     A.U. after   14 cycles
 SCF Done:  E(RM062X) =  -1469.99489689     A.U. after   14 cycles
 SCF Done:  E(RM062X) =  -1469.99501868     A.U. after   14 cycles
 SCF Done:  E(RM062X) =  -1469.99517535     A.U. after   13 cycles
 SCF Done:  E(RM062X) =  -1469.99524301     A.U. after   13 cycles
 SCF Done:  E(RM062X) =  -1469.99532568     A.U. after   14 cycles
 SCF Done:  E(RM062X) =  -1469.99530776     A.U. after   12 cycles
 SCF Done:  E(RM062X) =  -1469.99538416     A.U. after   13 cycles
 SCF Done:  E(RM062X) =  -1469.99539952     A.U. after   12 cycles
 SCF Done:  E(RM062X) =  -1469.99540349     A.U. after   11 cycles
 SCF Done:  E(RM062X) =  -1469.99540580     A.U. after   11 cycles
 SCF Done:  E(RM062X) =  -1469.99540706     A.U. after   11 cycles
 SCF Done:  E(RM062X) =  -1469.99540762     A.U. after   10 cycles
 SCF Done:  E(RM062X) =  -1469.99540781     A.U. after    9 cycles
 SCF Done:  E(RM062X) =  -1469.99540786     A.U. after    9 cycles
 Optimization completed.
    -- Stationary point found.

 1\1\GINC-R4171\FOpt\RM062X\Gen\C10H12F5N2O1S1(1-)\ROOT\31-Oct-2018\0\\
 # M062X/Gen 6D SCF=Tight INT(grid=ultrafine) OPT IOP(2/17=4) maxdisk=2
 147483648\\4SF5_a1.M062X_6-31pGd_opt\\-1,1\C,-2.0455909683,2.009040752
 7,0.0349015857\C,-0.7079737747,1.3876257084,0.4327449064\C,0.460222365
 3,1.9957872587,-0.3411346233\N,1.7185585468,1.394651108,0.024163797\C,
 2.9106871921,2.1412092208,-0.035255058\O,2.8402147047,3.3820740099,-0.
 0193123297\N,3.9881486635,1.3221250721,-0.0858549385\C,5.2479329161,1.
 8158794023,-0.0744947826\C,5.6617896202,3.1825629259,0.0140521255\C,6.

 Normal termination of Gaussian 09 at Wed Oct 31 13:32:17 2018.
 Gaussian 09:  ES64L-G09RevE.01 30-Nov-2015

 ----------------------------------------------------------------------
 # M062X/Gen 6D SCF=Tight INT(grid=ultrafine) OPT IOP(2/17=4) Freq=Nora
 man maxdisk=2147483648 geom=check guess=read IOP(2/17=4)
 ----------------------------------------------------------------------

 -------------------------
 4SF5_a1.M062X_6-31pGd_opt
 -------------------------
 Structure from the checkpoint file:  "4SF5_a1.M062X_6-31pGd_opt.chk"
 Charge = -1 Multiplicity = 1

 SCF Done:  E(RM062X) =  -1469.99540786     A.U. after    1 cycles
 Optimization completed.
    -- Stationary point found.

 1\1\GINC-R4171\FOpt\RM062X\Gen\C10H12F5N2O1S1(1-)\ROOT\31-Oct-2018\0\\
 # M062X/Gen 6D SCF=Tight INT(grid=ultrafine) OPT IOP(2/17=4) Freq=Nora
 man maxdisk=2147483648 geom=check guess=read IOP(2/17=4)\\4SF5_a1.M062
 X_6-31pGd_opt\\-1,1\C,-2.0455909683,2.0090407527,0.0349015857\C,-0.707
 9737747,1.3876257084,0.4327449064\C,0.4602223653,1.9957872587,-0.34113
 46233\N,1.7185585468,1.394651108,0.024163797\C,2.9106871921,2.14120922
 08,-0.035255058\O,2.8402147047,3.3820740099,-0.0193123297\N,3.98814866
 35,1.3221250721,-0.0858549385\C,5.2479329161,1.8158794023,-0.074494782

 Normal termination of Gaussian 09 at Wed Oct 31 13:33:13 2018.

 ----------------------------------------------------------------------
 #N Geom=AllCheck Guess=TCheck SCRF=Check Test GenChk RM062X/ChkBas Fre
 q
 ----------------------------------------------------------------------

 Structure from the checkpoint file:  "4SF5_a1.M062X_6-31pGd_opt.chk"
 -------------------------
 4SF5_a1.M062X_6-31pGd_opt
 -------------------------
 Charge = -1 Multiplicity = 1

                         Standard orientation:
 ---------------------------------------------------------------------
 Center     Atomic      Atomic             Coordinates (Angstroms)
 Number     Number       Type             X           Y           Z
 ---------------------------------------------------------------------
      1          6           0       -8.087370   -0.490155    0.011664
      2          6           0       -6.834204    0.267380   -0.423505
      3          6           0       -5.596680   -0.175142    0.355045
      4          7           0       -4.419625    0.554233   -0.045918
      5          6           0       -3.148654   -0.047389    0.022879
      6          8           0       -3.075239   -1.287915    0.048785
      7          7           0       -2.172779    0.891735    0.032672
      8          6           0       -0.864482    0.546460    0.021530
      9          6           0       -0.296097   -0.765603   -0.027154
     10          6           0        0.069380    1.627517    0.058213
     11          6           0        1.435606    1.440016    0.048667
     12          6           0        1.942484    0.136674   -0.000045
     13          6           0        1.076359   -0.956841   -0.038144
     14          1           0       -8.970580   -0.172609   -0.553106
     15          1           0       -8.294349   -0.328741    1.076388
     16          1           0       -7.961122   -1.568559   -0.139183
     17          1           0       -6.987874    1.346915   -0.284614
     18          1           0       -6.643203    0.114305   -1.492167
     19          1           0       -5.385866   -1.231879    0.166183
     20          1           0       -5.796700   -0.076569    1.438619
     21          1           0       -4.385585    1.541582    0.174840
     22          1           0       -0.960553   -1.618176   -0.053291
     23          1           0       -0.342985    2.631777    0.093354
     24          1           0        2.106637    2.292746    0.077513
     25         16           0        3.706026   -0.124569   -0.012656
     26          1           0        1.474933   -1.966264   -0.075928
     27          9           0        3.988455    0.952080    1.173342
     28          9           0        5.321817   -0.360047   -0.023928
     29          9           0        3.654781   -1.322158    1.084245
     30          9           0        3.651800   -1.232356   -1.200057
     31          9           0        3.985537    1.041661   -1.111222
 ---------------------------------------------------------------------

 SCF Done:  E(RM062X) =  -1469.99540786     A.U. after    1 cycles

 The electronic state is 1-A.
 Alpha  occ. eigenvalues --  -90.20552 -25.18799 -25.18795 -25.18793 -25.18789
 Alpha  occ. eigenvalues --  -25.18596 -19.45871 -14.63591 -14.57915 -10.51678
 Alpha  occ. eigenvalues --  -10.46516 -10.46326 -10.46151 -10.45836 -10.45240
 Alpha  occ. eigenvalues --  -10.45004 -10.44824 -10.42344 -10.41567  -8.49264
 Alpha  occ. eigenvalues --   -6.41687  -6.41663  -6.41193  -1.37009  -1.27567
 Alpha  occ. eigenvalues --   -1.27395  -1.24309  -1.23242  -1.00985  -0.88927
 Alpha  occ. eigenvalues --   -0.87154  -0.84538  -0.79803  -0.78025  -0.72824
 Alpha  occ. eigenvalues --   -0.70655  -0.66627  -0.61503  -0.61197  -0.61131
 Alpha  occ. eigenvalues --   -0.57925  -0.57476  -0.54242  -0.51915  -0.51063
 Alpha  occ. eigenvalues --   -0.49818  -0.49458  -0.47542  -0.46073  -0.44225
 Alpha  occ. eigenvalues --   -0.43562  -0.43157  -0.43114  -0.42783  -0.42550
 Alpha  occ. eigenvalues --   -0.40923  -0.40569  -0.40010  -0.39725  -0.39286
 Alpha  occ. eigenvalues --   -0.39272  -0.37973  -0.37130  -0.36530  -0.35351
 Alpha  occ. eigenvalues --   -0.34321  -0.32806  -0.32123  -0.31650  -0.30278
 Alpha  occ. eigenvalues --   -0.29728  -0.28223  -0.22978  -0.21556  -0.19196
 Alpha  occ. eigenvalues --   -0.17907  -0.16160  -0.10841
 Alpha virt. eigenvalues --    0.09262   0.09843   0.11308   0.12413   0.12795
 Alpha virt. eigenvalues --    0.12999   0.13225   0.13847   0.14034   0.14093
 Alpha virt. eigenvalues --    0.14495   0.14689   0.15461   0.16085   0.16283

 Mulliken charges:
               1
     1  C   -0.738649
     2  C   -0.231594
     3  C   -0.285203
     4  N   -0.536047
     5  C    0.582359
     6  O   -0.653702
     7  N   -0.495277
     8  C   -0.132819
     9  C    0.373498
    10  C   -0.418157
    11  C   -0.498836
    12  C   -0.142552
    13  C   -0.167923
    14  H    0.191236
    15  H    0.199637
    16  H    0.207114
    17  H    0.189932
    18  H    0.217804
    19  H    0.251552
    20  H    0.172519
    21  H    0.392396
    22  H    0.259933
    23  H    0.191180
    24  H    0.210398
    25  S    2.192175
    26  H    0.211166
    27  F   -0.503638
    28  F   -0.522888
    29  F   -0.506144
    30  F   -0.506151
    31  F   -0.503319
 Sum of Mulliken charges =  -1.00000

 Dipole moment (field-independent basis, Debye):
    X=              0.4029    Y=              1.2111    Z=              0.4166  Tot=              1.3426
 Quadrupole moment (field-independent basis, Debye-Ang):
   XX=           -181.1212   YY=           -124.9968   ZZ=           -126.5688
   XY=             -3.9187   XZ=             -1.9254   YZ=              1.3920

  Exact polarizability: 293.863   1.401 154.927  -1.722  -0.237 113.637
 Approx polarizability: 274.635  -1.210 209.695  -1.364   0.645 146.435

                      1                      2                      3
                      A                      A                      A
 Frequencies --     14.2179                33.1319                36.9854
 Red. masses --      3.5222                 3.8983                 6.5947
 Frc consts  --      0.0004                 0.0025                 0.0053
 IR Inten    --      1.2336                 0.2769                 3.8231

                      4                      5                      6
                      A                      A                      A
 Frequencies --     63.2291                66.3206                70.9313
 Red. masses --      4.9951                 3.3623                 3.3169
 Frc consts  --      0.0118                 0.0087                 0.0098
 IR Inten    --      1.5035                 0.4514                 3.1619

                      7                      8                      9
                      A                      A                      A
 Frequencies --    109.0861               131.5027               166.4259
 Red. masses --      4.6351                 8.2955                 6.0006
 Frc consts  --      0.0325                 0.0845                 0.0979
 IR Inten    --      1.3209                 2.1607                 5.0311

                     10                     11                     12
                      A                      A                      A
 Frequencies --    180.9144               222.9813               234.8615
 Red. masses --      6.0781                 6.1619                 1.1929
 Frc consts  --      0.1172                 0.1805                 0.0388
 IR Inten    --      1.3212                 2.2556                 0.1141

                     13                     14                     15
                      A                      A                      A
 Frequencies --    246.7918               295.0420               320.7169
 Red. masses --      3.2534                 6.1136                10.9603
 Frc consts  --      0.1167                 0.3136                 0.6642
 IR Inten    --      0.1541                 3.1440                 0.2392

                     16                     17                     18
                      A                      A                      A
 Frequencies --    336.0654               336.9833               352.5831
 Red. masses --      5.9653                16.6392                 4.7700
 Frc consts  --      0.3969                 1.1133                 0.3494
 IR Inten    --      0.2002                 0.0022                24.6001

                     19                     20                     21
                      A                      A                      A
 Frequencies --    391.4079               429.8752               439.9303
 Red. masses --      7.8111                 3.2583                 8.0282
 Frc consts  --      0.7051                 0.3547                 0.9154
 IR Inten    --     21.3406                 0.0390                 0.8317

                     22                     23                     24
                      A                      A                      A
 Frequencies --    442.3960               444.7802               494.6399
 Red. masses --      8.1330                18.9347                 3.3956
 Frc consts  --      0.9378                 2.2070                 0.4895
 IR Inten    --      0.1381                 3.0780                 4.9667

                     25                     26                     27
                      A                      A                      A
 Frequencies --    528.5573               555.4871               556.3033
 Red. masses --      3.7942                17.7285                 7.7328
 Frc consts  --      0.6245                 3.2231                 1.4100
 IR Inten    --      2.1221                 6.7918                19.1958

                     28                     29                     30
                      A                      A                      A
 Frequencies --    576.9551               597.4683               598.8259
 Red. masses --      7.2498                18.2313                 1.9401
 Frc consts  --      1.4219                 3.8344                 0.4099
 IR Inten    --    219.6500                 0.0599                82.0309

                     31                     32                     33
                      A                      A                      A
 Frequencies --    633.9377               644.0131               677.2194
 Red. masses --      5.6289                 6.7579                 7.2738
 Frc consts  --      1.3328                 1.6514                 1.9655
 IR Inten    --      7.9318                27.4009                 4.4154

                     34                     35                     36
                      A                      A                      A
 Frequencies --    710.5914               751.3329               779.0738
 Red. masses --      3.3360                 1.2319                 2.7415
 Frc consts  --      0.9925                 0.4097                 0.9804
 IR Inten    --      7.4699                10.6557                66.5750

                     37                     38                     39
                      A                      A                      A
 Frequencies --    800.9642               824.4163               829.1929
 Red. masses --      7.4257                10.7725                 1.3591
 Frc consts  --      2.8068                 4.3138                 0.5506
 IR Inten    --     26.7789               738.4888                 4.8526

                     40                     41                     42
                      A                      A                      A
 Frequencies --    862.2966               866.2573               875.1154
 Red. masses --      1.9302                 6.2153                16.7441
 Frc consts  --      0.8456                 2.7479                 7.5552
 IR Inten    --     17.0125                93.3412               458.8487

                     43                     44                     45
                      A                      A                      A
 Frequencies --    884.9613               892.7749               922.0025
 Red. masses --     17.6492                 1.3055                 1.6679
 Frc consts  --      8.1437                 0.6130                 0.8354
 IR Inten    --    335.6717                20.8178                 3.8685

                     46                     47                     48
                      A                      A                      A
 Frequencies --    974.4705               996.3379              1001.5193
 Red. masses --      1.2747                 1.2871                 3.7239
 Frc consts  --      0.7132                 0.7528                 2.2007
 IR Inten    --      0.0361                 0.2868               193.3222

                     49                     50                     51
                      A                      A                      A
 Frequencies --   1014.9354              1070.7078              1115.4972
 Red. masses --      4.2302                 2.5977                 2.6292
 Frc consts  --      2.5674                 1.7546                 1.9276
 IR Inten    --     31.1835                10.8704               283.9898

                     52                     53                     54
                      A                      A                      A
 Frequencies --   1143.8876              1149.6033              1160.9100
 Red. masses --      2.0886                 1.2643                 1.7642
 Frc consts  --      1.6102                 0.9844                 1.4009
 IR Inten    --     21.6691                 5.7045                16.1621

                     55                     56                     57
                      A                      A                      A
 Frequencies --   1192.0944              1208.6540              1249.3236
 Red. masses --      2.0388                 1.4378                 2.0420
 Frc consts  --      1.7071                 1.2375                 1.8778
 IR Inten    --     78.0385                 1.0828               283.6464

                     58                     59                     60
                      A                      A                      A
 Frequencies --   1278.5439              1317.6811              1318.4819
 Red. masses --      1.4905                 1.2138                 1.5265
 Frc consts  --      1.4355                 1.2417                 1.5634
 IR Inten    --    327.7690                53.9278                 5.7502

                     61                     62                     63
                      A                      A                      A
 Frequencies --   1338.7512              1349.2714              1408.6083
 Red. masses --      1.2814                 3.5084                 1.8238
 Frc consts  --      1.3531                 3.7632                 2.1321
 IR Inten    --     13.1191                13.8038               264.4916

                     64                     65                     66
                      A                      A                      A
 Frequencies --   1425.8572              1440.4637              1484.7101
 Red. masses --      1.3116                 2.6447                 4.0014
 Frc consts  --      1.5711                 3.2332                 5.1969
 IR Inten    --     17.5279               383.2694                89.8867

                     67                     68                     69
                      A                      A                      A
 Frequencies --   1507.7859              1511.7398              1522.7108
 Red. masses --      1.7815                 1.1183                 1.0782
 Frc consts  --      2.3862                 1.5058                 1.4730
 IR Inten    --    800.7431                80.1168                 9.3844

                     70                     71                     72
                      A                      A                      A
 Frequencies --   1523.1386              1533.0878              1555.8267
 Red. masses --      1.0575                 1.0834                 3.3452
 Frc consts  --      1.4454                 1.5003                 4.7708
 IR Inten    --     29.2553                11.8385               644.1875

                     73                     74                     75
                      A                      A                      A
 Frequencies --   1608.6026              1638.6097              1711.6790
 Red. masses --      6.9223                 6.0690                 7.8720
 Frc consts  --     10.5535                 9.6010                13.5888
 IR Inten    --     81.5451               523.0470               258.7950

                     76                     77                     78
                      A                      A                      A
 Frequencies --   2967.6350              3053.5923              3064.2971
 Red. masses --      1.0736                 1.0664                 1.0357
 Frc consts  --      5.5710                 5.8583                 5.7297
 IR Inten    --    135.2829                38.0969                50.8012

                     79                     80                     81
                      A                      A                      A
 Frequencies --   3103.1486              3132.2370              3136.4465
 Red. masses --      1.0957                 1.0994                 1.1014
 Frc consts  --      6.2163                 6.3549                 6.3837
 IR Inten    --     12.0870                43.8037                54.4133

                     82                     83                     84
                      A                      A                      A
 Frequencies --   3143.3655              3220.6049              3231.6083
 Red. masses --      1.0909                 1.0875                 1.0905
 Frc consts  --      6.3508                 6.6459                 6.7098
 IR Inten    --     29.2812                 8.7752                 5.3424

                     85                     86                     87
                      A                      A                      A
 Frequencies --   3240.2634              3287.5173              3630.5043
 Red. masses --      1.0947                 1.0917                 1.0760
 Frc consts  --      6.7720                 6.9518                 8.3562
 IR Inten    --     11.3811                 5.0600                11.6540

 - Thermochemistry -
 -------------------
 Temperature   298.150 Kelvin.  Pressure   1.00000 Atm.
 Atom     1 has atomic number  6 and mass  12.00000

 Molecular mass:   303.05905 amu.
 Principal axes and moments of inertia in atomic units:
                           1         2         3
     Eigenvalues --  1299.11814********************
           X            1.00000   0.00265  -0.00015
           Y           -0.00265   1.00000   0.00005
           Z            0.00015  -0.00005   1.00000
 This molecule is an asymmetric top.
 Rotational symmetry number  1.
 Warning -- assumption of classical behavior for rotation
           may cause significant error
 Rotational temperatures (Kelvin)      0.06667     0.00485     0.00471
 Rotational constants (GHZ):           1.38920     0.10100     0.09815
 Zero-point vibrational energy     593313.4 (Joules/Mol)
                                  141.80531 (Kcal/Mol)
 Warning -- explicit consideration of  30 degrees of freedom as
           vibrations may cause significant error
 Vibrational temperatures:     20.46    47.67    53.21    90.97    95.42
          (Kelvin)            102.05   156.95   189.20   239.45   260.30
                              320.82   337.91   355.08   424.50   461.44
                              483.52   484.84   507.29   563.15   618.49
                              632.96   636.51   639.94   711.68   760.48
                              799.22   800.40   830.11   859.62   861.58
                              912.09   926.59   974.37  1022.38  1081.00
                             1120.91  1152.41  1186.15  1193.02  1240.65
                             1246.35  1259.09  1273.26  1284.50  1326.55
                             1402.04  1433.51  1440.96  1460.26  1540.51
                             1604.95  1645.80  1654.02  1670.29  1715.16
                             1738.98  1797.50  1839.54  1895.85  1897.00
                             1926.16  1941.30  2026.67  2051.49  2072.50
                             2136.16  2169.36  2175.05  2190.84  2191.45
                             2205.77  2238.48  2314.42  2357.59  2462.72
                             4269.76  4393.43  4408.83  4464.73  4506.58
                             4512.64  4522.60  4633.73  4649.56  4662.01
                             4730.00  5223.48

 Zero-point correction=                           0.225981 (Hartree/Particle)
 Thermal correction to Energy=                    0.244300
 Thermal correction to Enthalpy=                  0.245244
 Thermal correction to Gibbs Free Energy=         0.176890
 Sum of electronic and zero-point Energies=          -1469.769427
 Sum of electronic and thermal Energies=             -1469.751108
 Sum of electronic and thermal Enthalpies=           -1469.750163
 Sum of electronic and thermal Free Energies=        -1469.818518

                     E (Thermal)             CV                S
                      KCal/Mol        Cal/Mol-Kelvin    Cal/Mol-Kelvin
 Total                  153.301             68.784            143.864
 Electronic               0.000              0.000              0.000
 Translational            0.889              2.981             43.023
 Rotational               0.889              2.981             34.411
 Vibrational            151.523             62.822             66.430
 Vibration     1          0.593              1.986              7.312
 Vibration     2          0.594              1.983              5.632
 Vibration     3          0.594              1.982              5.414
 Vibration     4          0.597              1.972              4.354
 Vibration     5          0.598              1.970              4.260
 Vibration     6          0.598              1.968              4.127
 Vibration     7          0.606              1.942              3.285
 Vibration     8          0.612              1.922              2.924
 Vibration     9          0.624              1.884              2.475
 Vibration    10          0.630              1.866              2.319
 Vibration    11          0.649              1.806              1.935
 Vibration    12          0.655              1.787              1.841
 Vibration    13          0.661              1.768              1.753
 Vibration    14          0.689              1.683              1.445
 Vibration    15          0.706              1.634              1.306
 Vibration    16          0.717              1.603              1.231
 Vibration    17          0.718              1.602              1.226
 Vibration    18          0.729              1.570              1.155
 Vibration    19          0.759              1.489              0.995
 Vibration    20          0.791              1.405              0.859
 Vibration    21          0.800              1.383              0.827
 Vibration    22          0.802              1.378              0.819
 Vibration    23          0.804              1.372              0.812
 Vibration    24          0.850              1.262              0.672
 Vibration    25          0.884              1.187              0.590
 Vibration    26          0.911              1.128              0.533
 Vibration    27          0.912              1.126              0.531
 Vibration    28          0.933              1.081              0.491
 Vibration    29          0.955              1.037              0.454
 Vibration    30          0.957              1.034              0.452

 Optimization completed.
    -- Stationary point found.

 1\1\GINC-R4171\Freq\RM062X\Gen\C10H12F5N2O1S1(1-)\ROOT\31-Oct-2018\0\\
 #N Geom=AllCheck Guess=TCheck SCRF=Check Test GenChk RM062X/ChkBas Fre
 q\\4SF5_a1.M062X_6-31pGd_opt\\-1,1\C,-2.0455909683,2.0090407527,0.0349
 015857\C,-0.7079737747,1.3876257084,0.4327449064\C,0.4602223653,1.9957
 872587,-0.3411346233\N,1.7185585468,1.394651108,0.024163797\C,2.910687
 1921,2.1412092208,-0.035255058\O,2.8402147047,3.3820740099,-0.01931232
 97\N,3.9881486635,1.3221250721,-0.0858549385\C,5.2479329161,1.81587940
 23,-0.0744947826\C,5.6617896202,3.1825629259,0.0140521255\C,6.29969013

 Normal termination of Gaussian 09 at Wed Oct 31 14:19:02 2018.
