 Gaussian 09, Revision E.01,

 ----------------------------------------------------------------------
 # M062X/Gen 6D SCF=Tight INT(grid=ultrafine) OPT IOP(2/17=4) maxdisk=2
 147483648
 ----------------------------------------------------------------------

 ----------------------
 4SF5.M062X_6-31pGd_opt
 ----------------------
 Symbolic Z-matrix:
 Charge =  0 Multiplicity = 1

 SCF Done:  E(RM062X) =  -1470.49157791     A.U. after   18 cycles
 SCF Done:  E(RM062X) =  -1470.52215778     A.U. after   13 cycles
 SCF Done:  E(RM062X) =  -1470.52939223     A.U. after   13 cycles
 SCF Done:  E(RM062X) =  -1470.53042605     A.U. after   13 cycles
 SCF Done:  E(RM062X) =  -1470.53061903     A.U. after   12 cycles
 SCF Done:  E(RM062X) =  -1470.53062870     A.U. after   11 cycles
 SCF Done:  E(RM062X) =  -1470.53063481     A.U. after   10 cycles
 SCF Done:  E(RM062X) =  -1470.53063496     A.U. after    9 cycles
 Optimization completed.
    -- Stationary point found.
 Normal termination of Gaussian 09 at Tue Oct 30 11:44:59 2018.
 Gaussian 09:  ES64L-G09RevE.01 30-Nov-2015

 ----------------------------------------------------------------------
 # M062X/Gen 6D SCF=Tight INT(grid=ultrafine) OPT IOP(2/17=4) Freq=Nora
 man maxdisk=2147483648 geom=check guess=read IOP(2/17=4)
 ----------------------------------------------------------------------

 ----------------------
 4SF5.M062X_6-31pGd_opt
 ----------------------
 Structure from the checkpoint file:  "4SF5.M062X_6-31pGd_opt.chk"
 Charge =  0 Multiplicity = 1

 SCF Done:  E(RM062X) =  -1470.53063496     A.U. after    1 cycles
 SCF Done:  E(RM062X) =  -1470.53063468     A.U. after    9 cycles
 SCF Done:  E(RM062X) =  -1470.53104094     A.U. after   12 cycles
 SCF Done:  E(RM062X) =  -1470.53106712     A.U. after   12 cycles
 SCF Done:  E(RM062X) =  -1470.53107237     A.U. after   11 cycles
 SCF Done:  E(RM062X) =  -1470.53107550     A.U. after   11 cycles
 SCF Done:  E(RM062X) =  -1470.53107811     A.U. after   11 cycles
 SCF Done:  E(RM062X) =  -1470.53107879     A.U. after   10 cycles
 SCF Done:  E(RM062X) =  -1470.53107937     A.U. after   10 cycles
 SCF Done:  E(RM062X) =  -1470.53107959     A.U. after   10 cycles
 SCF Done:  E(RM062X) =  -1470.53107964     A.U. after    9 cycles
 Optimization completed.
    -- Stationary point found.
 Normal termination of Gaussian 09 at Tue Oct 30 14:11:21 2018.

 ----------------------------------------------------------------------
 #N Geom=AllCheck Guess=TCheck SCRF=Check Test GenChk RM062X/ChkBas Fre
 q
 ----------------------------------------------------------------------

 Structure from the checkpoint file:  "4SF5.M062X_6-31pGd_opt.chk"
 ----------------------
 4SF5.M062X_6-31pGd_opt
 ----------------------
 Charge =  0 Multiplicity = 1

                         Standard orientation:
 ---------------------------------------------------------------------
 Center     Atomic      Atomic             Coordinates (Angstroms)
 Number     Number       Type             X           Y           Z
 ---------------------------------------------------------------------
      1          6           0       -8.139541   -0.412934    0.016137
      2          6           0       -6.883341    0.453334    0.074503
      3          6           0       -5.621510   -0.380004   -0.107986
      4          7           0       -4.436461    0.466695   -0.041341
      5          6           0       -3.199372   -0.127605    0.024800
      6          8           0       -3.048577   -1.329263    0.155716
      7          7           0       -2.148791    0.782539   -0.037609
      8          6           0       -0.778913    0.504937   -0.014408
      9          6           0       -0.247979   -0.792147   -0.056605
     10          6           0        0.093509    1.603508    0.035397
     11          6           0        1.467670    1.424464    0.040963
     12          6           0        1.975739    0.131092   -0.004055
     13          6           0        1.131440   -0.970375   -0.052518
     14          1           0       -9.041771    0.190999    0.145618
     15          1           0       -8.127151   -1.172277    0.805001
     16          1           0       -8.216763   -0.930631   -0.945841
     17          1           0       -6.828018    0.978377    1.035465
     18          1           0       -6.932589    1.222877   -0.708623
     19          1           0       -5.655177   -0.926199   -1.061375
     20          1           0       -5.534801   -1.126840    0.685833
     21          1           0       -4.506689    1.368967   -0.495755
     22          1           0       -2.390999    1.761855    0.036606
     23          1           0       -0.908492   -1.646934   -0.085366
     24          1           0       -0.309585    2.612779    0.068262
     25          1           0        2.129499    2.282276    0.079789
     26         16           0        3.763028   -0.116279    0.000983
     27          1           0        1.538280   -1.974997   -0.085820
     28          9           0        3.979622    0.952453    1.193838
     29          9           0        5.356447   -0.333559    0.004888
     30          9           0        3.670170   -1.309487    1.084249
     31          9           0        3.690189   -1.201997   -1.191869
     32          9           0        4.000792    1.059709   -1.082215
 ---------------------------------------------------------------------

 SCF Done:  E(RM062X) =  -1470.53107964     A.U. after    1 cycles

 The electronic state is 1-A.
 Alpha  occ. eigenvalues --  -90.32051 -25.29805 -25.29802 -25.29795 -25.29793
 Alpha  occ. eigenvalues --  -25.29615 -19.63098 -14.82526 -14.80489 -10.70469
 Alpha  occ. eigenvalues --  -10.63230 -10.60597 -10.59553 -10.59077 -10.58678
 Alpha  occ. eigenvalues --  -10.58344 -10.57127 -10.56694 -10.55319  -8.60675
 Alpha  occ. eigenvalues --   -6.53113  -6.53101  -6.52667  -1.48618  -1.38826
 Alpha  occ. eigenvalues --   -1.38707  -1.35771  -1.34346  -1.19848  -1.08233
 Alpha  occ. eigenvalues --   -1.04905  -0.99393  -0.93110  -0.90126  -0.87693
 Alpha  occ. eigenvalues --   -0.85913  -0.79794  -0.75136  -0.74235  -0.72332
 Alpha  occ. eigenvalues --   -0.72126  -0.70442  -0.69792  -0.67830  -0.65491
 Alpha  occ. eigenvalues --   -0.63586  -0.62290  -0.60918  -0.60466  -0.57748
 Alpha  occ. eigenvalues --   -0.57044  -0.56500  -0.55153  -0.54627  -0.54246
 Alpha  occ. eigenvalues --   -0.54140  -0.54134  -0.53869  -0.53740  -0.52387
 Alpha  occ. eigenvalues --   -0.51335  -0.51184  -0.50764  -0.50124  -0.49820
 Alpha  occ. eigenvalues --   -0.49446  -0.47977  -0.46359  -0.44495  -0.44241
 Alpha  occ. eigenvalues --   -0.43798  -0.42330  -0.41696  -0.40048  -0.36475
 Alpha  occ. eigenvalues --   -0.34083  -0.33389  -0.29504
 Alpha virt. eigenvalues --   -0.01502  -0.00954  -0.00433  -0.00078   0.01741
 Alpha virt. eigenvalues --    0.02486   0.02820   0.03300   0.03717   0.04356
 Alpha virt. eigenvalues --    0.04897   0.05230   0.05847   0.06165   0.06454

 Mulliken charges:
               1
     1  C   -0.718594
     2  C   -0.307462
     3  C   -0.215612
     4  N   -0.591837
     5  C    0.742934
     6  O   -0.565257
     7  N   -0.652209
     8  C    0.087545
     9  C    0.703420
    10  C   -0.487506
    11  C   -0.553867
    12  C   -0.242971
    13  C   -0.332371
    14  H    0.215637
    15  H    0.216346
    16  H    0.214872
    17  H    0.227640
    18  H    0.203181
    19  H    0.217617
    20  H    0.243446
    21  H    0.385220
    22  H    0.411008
    23  H    0.278980
    24  H    0.202185
    25  H    0.249615
    26  S    2.297731
    27  H    0.250742
    28  F   -0.497022
    29  F   -0.491587
    30  F   -0.497694
    31  F   -0.496580
    32  F   -0.497551
 Sum of Mulliken charges =  -0.00000

 Dipole moment (field-independent basis, Debye):
    X=             -7.0822    Y=              4.0228    Z=             -0.7599  Tot=              8.1803
 Quadrupole moment (field-independent basis, Debye-Ang):
   XX=           -113.1126   YY=           -111.0508   ZZ=           -121.9327
   XY=             -9.9024   XZ=              3.3397   YZ=             -0.2405

  Exact polarizability: 237.566  -0.513 148.297   0.932   0.666 104.071
 Approx polarizability: 222.441  -2.279 204.711   0.980   0.330 135.426

                      1                      2                      3
                      A                      A                      A
 Frequencies --     19.0141                26.1337                53.0570
 Red. masses --      5.2338                 3.0530                 3.8531
 Frc consts  --      0.0011                 0.0012                 0.0064
 IR Inten    --      0.0635                 4.0384                 3.9715

                      4                      5                      6
                      A                      A                      A
 Frequencies --     54.2709                63.2190                71.2973
 Red. masses --      5.0576                 3.8008                 3.1008
 Frc consts  --      0.0088                 0.0090                 0.0093
 IR Inten    --      0.0403                 0.0348                 3.2417

                      7                      8                      9
                      A                      A                      A
 Frequencies --    101.5140               122.3120               171.2597
 Red. masses --      5.8817                 6.7984                 7.4834
 Frc consts  --      0.0357                 0.0599                 0.1293
 IR Inten    --      0.1207                 3.3688                 0.6225

                     10                     11                     12
                      A                      A                      A
 Frequencies --    181.3163               204.3189               216.6694
 Red. masses --      3.2033                 4.6600                 5.2121
 Frc consts  --      0.0620                 0.1146                 0.1442
 IR Inten    --      1.8988                 9.3537                 0.7817

                     13                     14                     15
                      A                      A                      A
 Frequencies --    237.9763               288.8909               329.8083
 Red. masses --      1.1380                 6.4721                 4.9797
 Frc consts  --      0.0380                 0.3182                 0.3191
 IR Inten    --      0.1068                 0.7263                 4.6174

                     16                     17                     18
                      A                      A                      A
 Frequencies --    334.3229               338.5709               342.2024
 Red. masses --      6.7388                17.8140                 2.8867
 Frc consts  --      0.4438                 1.2031                 0.1992
 IR Inten    --      1.5622                 0.5406                65.0753

                     19                     20                     21
                      A                      A                      A
 Frequencies --    364.5299               382.7916               416.2699
 Red. masses --      1.9008                 6.0564                 3.0722
 Frc consts  --      0.1488                 0.5229                 0.3137
 IR Inten    --     31.8344                 5.2098                 0.1246

                     22                     23                     24
                      A                      A                      A
 Frequencies --    437.8260               441.2501               456.0272
 Red. masses --      7.3118                 7.8024                18.6678
 Frc consts  --      0.8258                 0.8951                 2.2873
 IR Inten    --      2.0103                 0.9160                 0.5056

                     25                     26                     27
                      A                      A                      A
 Frequencies --    485.3231               508.5510               535.1587
 Red. masses --      1.7776                 1.9366                 5.2588
 Frc consts  --      0.2467                 0.2951                 0.8874
 IR Inten    --     54.6294               101.5443                 1.9125

                     28                     29                     30
                      A                      A                      A
 Frequencies --    556.3603               567.6368               595.5995
 Red. masses --     17.8366                 4.6546                15.1841
 Frc consts  --      3.2529                 0.8836                 3.1736
 IR Inten    --      8.6980                41.0908                94.2036

                     31                     32                     33
                      A                      A                      A
 Frequencies --    619.1944               638.7666               662.3199
 Red. masses --     18.7381                 6.9621                 9.2950
 Frc consts  --      4.2328                 1.6737                 2.4023
 IR Inten    --      0.0257                 1.2895                 5.9227

                     34                     35                     36
                      A                      A                      A
 Frequencies --    689.7064               723.3317               753.0632
 Red. masses --      9.7172                 4.1007                 1.9409
 Frc consts  --      2.7234                 1.2641                 0.6485
 IR Inten    --      3.4178                 0.1138                 9.9906

                     37                     38                     39
                      A                      A                      A
 Frequencies --    766.2087               788.9820               838.7324
 Red. masses --      1.9161                 5.4233                 1.3943
 Frc consts  --      0.6628                 1.9891                 0.5779
 IR Inten    --      4.2758                32.4822                18.3879

                     40                     41                     42
                      A                      A                      A
 Frequencies --    855.7422               870.2303               889.1108
 Red. masses --      7.4775                 1.4592                 7.6792
 Frc consts  --      3.2262                 0.6511                 3.5766
 IR Inten    --    265.7683                27.5231               317.3156

                     43                     44                     45
                      A                      A                      A
 Frequencies --    901.3864               905.4249               911.2075
 Red. masses --      1.1962                23.3181                22.0765
 Frc consts  --      0.5726                11.2629                10.7998
 IR Inten    --      6.6301               414.4095               324.6184

                     46                     47                     48
                      A                      A                      A
 Frequencies --    933.7406               977.2162              1007.7717
 Red. masses --      1.7011                 1.3198                 1.3211
 Frc consts  --      0.8738                 0.7426                 0.7905
 IR Inten    --      7.4682                 0.3747                 0.2635

                     49                     50                     51
                      A                      A                      A
 Frequencies --   1029.4907              1046.0750              1080.0092
 Red. masses --      3.6103                 4.1556                 2.6480
 Frc consts  --      2.2545                 2.6792                 1.8198
 IR Inten    --     10.9939                 3.4721                 3.0992

                     52                     53                     54
                      A                      A                      A
 Frequencies --   1142.4280              1149.1843              1165.3221
 Red. masses --      3.3093                 2.2893                 2.4392
 Frc consts  --      2.5447                 1.7813                 1.9516
 IR Inten    --     61.5584                27.5892                 2.9123

                     55                     56                     57
                      A                      A                      A
 Frequencies --   1169.8180              1181.2034              1222.6343
 Red. masses --      1.3497                 1.7473                 1.1952
 Frc consts  --      1.0882                 1.4364                 1.0526
 IR Inten    --      3.8396                 0.7671                88.2475

                     58                     59                     60
                      A                      A                      A
 Frequencies --   1240.0204              1282.4763              1304.4930
 Red. masses --      1.5926                 1.2967                 2.3998
 Frc consts  --      1.4428                 1.2565                 2.4060
 IR Inten    --    235.8743                94.3638                 0.8997

                     61                     62                     63
                      A                      A                      A
 Frequencies --   1328.0909              1343.7462              1347.8924
 Red. masses --      1.1460                 1.3709                 1.3577
 Frc consts  --      1.1909                 1.4584                 1.4534
 IR Inten    --     15.2859                 8.9684                 4.7376

                     64                     65                     66
                      A                      A                      A
 Frequencies --   1366.3118              1426.1379              1438.0152
 Red. masses --      5.3609                 1.5174                 1.3169
 Frc consts  --      5.8964                 1.8184                 1.6045
 IR Inten    --    132.3642                 0.6796                 1.9827

                     67                     68                     69
                      A                      A                      A
 Frequencies --   1457.1202              1516.5008              1525.2114
 Red. masses --      2.8488                 1.0597                 1.0477
 Frc consts  --      3.5637                 1.4358                 1.4360
 IR Inten    --     71.8382                 8.7550                18.7298

                     70                     71                     72
                      A                      A                      A
 Frequencies --   1527.6609              1535.6215              1543.0353
 Red. masses --      1.0744                 1.3820                 1.2759
 Frc consts  --      1.4772                 1.9202                 1.7899
 IR Inten    --      1.8820                96.5322               180.3106

                     73                     74                     75
                      A                      A                      A
 Frequencies --   1562.3852              1584.8852              1676.3562
 Red. masses --      2.4608                 2.4748                 5.5771
 Frc consts  --      3.5392                 3.6625                 9.2340
 IR Inten    --      9.9555              1028.4647                58.8913

                     76                     77                     78
                      A                      A                      A
 Frequencies --   1686.4736              1825.6064              3056.4374
 Red. masses --      6.0054                 8.7879                 1.0665
 Frc consts  --     10.0635                17.2563                 5.8700
 IR Inten    --     62.0817               268.2230                16.3918

                     79                     80                     81
                      A                      A                      A
 Frequencies --   3057.9411              3080.8640              3107.5968
 Red. masses --      1.0701                 1.0364                 1.0958
 Frc consts  --      5.8956                 5.7959                 6.2349
 IR Inten    --     42.6100                29.4837                15.6955

                     82                     83                     84
                      A                      A                      A
 Frequencies --   3146.0504              3153.1191              3162.0203
 Red. masses --      1.0971                 1.1013                 1.1018
 Frc consts  --      6.3979                 6.4514                 6.4907
 IR Inten    --      1.1251                47.4623                27.5491

                     85                     86                     87
                      A                      A                      A
 Frequencies --   3211.0619              3257.1426              3260.3355
 Red. masses --      1.0906                 1.0920                 1.0938
 Frc consts  --      6.6254                 6.8255                 6.8502
 IR Inten    --     10.9221                 0.3736                 0.4269

                     88                     89                     90
                      A                      A                      A
 Frequencies --   3297.9930              3622.4273              3636.8796
 Red. masses --      1.0935                 1.0774                 1.0770
 Frc consts  --      7.0074                 8.3295                 8.3933
 IR Inten    --     12.4689                19.8707                34.2287

 - Thermochemistry -
 -------------------
 Temperature   298.150 Kelvin.  Pressure   1.00000 Atm.
 Atom     1 has atomic number  6 and mass  12.00000

 Molecular mass:   304.06688 amu.
 Principal axes and moments of inertia in atomic units:
                           1         2         3
     Eigenvalues --  1285.22275********************
           X            1.00000   0.00128   0.00047
           Y           -0.00128   1.00000   0.00244
           Z           -0.00047  -0.00244   1.00000
 This molecule is an asymmetric top.
 Rotational symmetry number  1.
 Warning -- assumption of classical behavior for rotation
           may cause significant error
 Rotational temperatures (Kelvin)      0.06739     0.00479     0.00465
 Rotational constants (GHZ):           1.40422     0.09980     0.09691
 Zero-point vibrational energy     630370.3 (Joules/Mol)
                                  150.66212 (Kcal/Mol)
 Warning -- explicit consideration of  31 degrees of freedom as
           vibrations may cause significant error
 Vibrational temperatures:     27.36    37.60    76.34    78.08    90.96
          (Kelvin)            102.58   146.06   175.98   246.40   260.87
                              293.97   311.74   342.39   415.65   474.52
                              481.02   487.13   492.35   524.48   550.75
                              598.92   629.93   634.86   656.12   698.27
                              731.69   769.97   800.48   816.70   856.93
                              890.88   919.04   952.93   992.33  1040.71
                             1083.49  1102.40  1135.17  1206.75  1231.22
                             1252.07  1279.23  1296.89  1302.70  1311.02
                             1343.44  1405.99  1449.96  1481.21  1505.07
                             1553.89  1643.70  1653.42  1676.64  1683.11
                             1699.49  1759.10  1784.11  1845.20  1876.87
                             1910.82  1933.35  1939.31  1965.82  2051.89
                             2068.98  2096.47  2181.90  2194.44  2197.96
                             2209.41  2220.08  2247.92  2280.29  2411.90
                             2426.46  2626.64  4397.53  4399.69  4432.67
                             4471.13  4526.46  4536.63  4549.44  4620.00
                             4686.30  4690.89  4745.07  5211.86  5232.65

 Zero-point correction=                           0.240095 (Hartree/Particle)
 Thermal correction to Energy=                    0.258838
 Thermal correction to Enthalpy=                  0.259783
 Thermal correction to Gibbs Free Energy=         0.190806
 Sum of electronic and zero-point Energies=          -1470.290984
 Sum of electronic and thermal Energies=             -1470.272241
 Sum of electronic and thermal Enthalpies=           -1470.271297
 Sum of electronic and thermal Free Energies=        -1470.340273

                     E (Thermal)             CV                S
                      KCal/Mol        Cal/Mol-Kelvin    Cal/Mol-Kelvin
 Total                  162.424             70.185            145.173
 Electronic               0.000              0.000              0.000
 Translational            0.889              2.981             43.033
 Rotational               0.889              2.981             34.425
 Vibrational            160.646             64.224             67.715
 Vibration     1          0.593              1.986              6.735
 Vibration     2          0.593              1.985              6.103
 Vibration     3          0.596              1.976              4.700
 Vibration     4          0.596              1.976              4.655
 Vibration     5          0.597              1.972              4.354
 Vibration     6          0.598              1.968              4.117
 Vibration     7          0.604              1.948              3.425
 Vibration     8          0.610              1.931              3.064
 Vibration     9          0.626              1.878              2.422
 Vibration    10          0.630              1.865              2.315
 Vibration    11          0.640              1.834              2.094
 Vibration    12          0.646              1.816              1.987
 Vibration    13          0.656              1.782              1.818
 Vibration    14          0.685              1.694              1.480
 Vibration    15          0.713              1.616              1.261
 Vibration    16          0.716              1.607              1.239
 Vibration    17          0.719              1.598              1.219
 Vibration    18          0.721              1.591              1.202
 Vibration    19          0.738              1.545              1.103
 Vibration    20          0.752              1.507              1.028
 Vibration    21          0.779              1.435              0.905
 Vibration    22          0.798              1.388              0.833
 Vibration    23          0.801              1.380              0.823
 Vibration    24          0.814              1.348              0.778
 Vibration    25          0.841              1.283              0.696
 Vibration    26          0.864              1.231              0.637
 Vibration    27          0.890              1.172              0.576
 Vibration    28          0.912              1.126              0.531
 Vibration    29          0.924              1.101              0.509
 Vibration    30          0.953              1.041              0.457
 Vibration    31          0.979              0.991              0.418

 Normal termination of Gaussian 09 at Tue Oct 30 14:59:23 2018.
