 Gaussian 09, Revision E.01,

 ----------------------------------------------------------------------
 # M062X/Gen 6D SCF=Tight INT(grid=ultrafine) OPT IOP(2/17=4) SCRF=(SMD
 ,Solvent=n-Pentadecane) maxdisk=2684354560
 ----------------------------------------------------------------------

 ----------------------------------------
 3TMF4Nitro.M062X_6-31pGd_opt_Pentadecane
 ----------------------------------------
 Symbolic Z-matrix:
 Charge =  0 Multiplicity = 1

 SCF Done:  E(RM062X) =  -1115.38450687     A.U. after   16 cycles
 SCF Done:  E(RM062X) =  -1115.40646498     A.U. after   14 cycles
 SCF Done:  E(RM062X) =  -1115.40646933     A.U. after   14 cycles
 SCF Done:  E(RM062X) =  -1115.40771823     A.U. after   14 cycles
 SCF Done:  E(RM062X) =  -1115.40862891     A.U. after   14 cycles
 SCF Done:  E(RM062X) =  -1115.40711152     A.U. after   14 cycles
 SCF Done:  E(RM062X) =  -1115.40866260     A.U. after   10 cycles
 SCF Done:  E(RM062X) =  -1115.40868736     A.U. after   12 cycles
 SCF Done:  E(RM062X) =  -1115.40869350     A.U. after   12 cycles
 SCF Done:  E(RM062X) =  -1115.40868878     A.U. after   12 cycles
 SCF Done:  E(RM062X) =  -1115.40987186     A.U. after   15 cycles
 SCF Done:  E(RM062X) =  -1115.40987480     A.U. after   12 cycles
 SCF Done:  E(RM062X) =  -1115.40988401     A.U. after   12 cycles
 SCF Done:  E(RM062X) =  -1115.40988887     A.U. after   12 cycles
 SCF Done:  E(RM062X) =  -1115.40988892     A.U. after   13 cycles
 SCF Done:  E(RM062X) =  -1115.40988945     A.U. after   11 cycles
 SCF Done:  E(RM062X) =  -1115.40988948     A.U. after   10 cycles
 SCF Done:  E(RM062X) =  -1115.40988945     A.U. after   11 cycles
 SCF Done:  E(RM062X) =  -1115.40988947     A.U. after    9 cycles
 Optimization completed.
    -- Stationary point found.
 Normal termination of Gaussian 09 at Fri Feb 22 16:50:55 2019.
 Gaussian 09:  ES64L-G09RevE.01 30-Nov-2015

 ----------------------------------------------------------------------
 # M062X/Gen 6D SCF=Tight INT(grid=ultrafine) SCRF=(SMD,Solvent=n-Penta
 decane) Freq=Noraman maxdisk=2684354560 geom=check guess=read IOP(2/17
 =4)
 ----------------------------------------------------------------------

 ----------------------------------------
 3TMF4Nitro.M062X_6-31pGd_opt_Pentadecane
 ----------------------------------------
 Structure from the checkpoint file:  "3TMF4Nitro.M062X_6-31pGd_opt_Pentadecane.chk"
 Charge =  0 Multiplicity = 1

                         Standard orientation:
 ---------------------------------------------------------------------
 Center     Atomic      Atomic             Coordinates (Angstroms)
 Number     Number       Type             X           Y           Z
 ---------------------------------------------------------------------
      1          6           0       -7.437505    0.599104   -0.033440
      2          6           0       -6.259858   -0.361536    0.103347
      3          6           0       -4.935445    0.339731   -0.167128
      4          7           0       -3.828244   -0.599274   -0.036285
      5          6           0       -2.544460   -0.146232   -0.002822
      6          8           0       -2.255549    1.040312    0.025097
      7          7           0       -1.592049   -1.165884    0.023454
      8          6           0       -0.208854   -1.038787    0.023029
      9          6           0        0.458030    0.199334    0.038375
     10          6           0        0.548158   -2.219712    0.022546
     11          6           0        1.930200   -2.169481    0.012477
     12          6           0        2.577413   -0.940506   -0.015198
     13          6           0        1.846205    0.252260    0.009260
     14          1           0       -8.385401    0.089705    0.163123
     15          1           0       -7.486975    1.021814   -1.042867
     16          1           0       -7.350298    1.430314    0.674582
     17          1           0       -6.382980   -1.195473   -0.601211
     18          1           0       -6.237763   -0.791544    1.112088
     19          1           0       -4.775533    1.148199    0.551869
     20          1           0       -4.938043    0.789982   -1.169233
     21          1           0       -4.010018   -1.566807   -0.273974
     22          1           0       -1.937933   -2.117336    0.067085
     23          1           0       -0.116945    1.112585    0.087154
     24          1           0        0.048997   -3.184882    0.024978
     25          6           0        2.487669    1.626527    0.083842
     26          9           0        1.603220    2.541055    0.518251
     27          9           0        2.927549    2.060981   -1.103159
     28          9           0        3.514289    1.651873    0.947877
     29          7           0        4.038474   -0.971365   -0.112991
     30          8           0        4.615471   -1.908082    0.415669
     31          8           0        4.583964   -0.086099   -0.745144
     32          1           0        2.519714   -3.079323    0.009740
 ---------------------------------------------------------------------

 SCF Done:  E(RM062X) =  -1115.40988947     A.U. after    1 cycles

 The electronic state is 1-A.
 Alpha  occ. eigenvalues --  -25.30370 -25.30306 -25.30002 -19.69242 -19.69110
 Alpha  occ. eigenvalues --  -19.62932 -15.02480 -14.82655 -14.80185 -10.82168
 Alpha  occ. eigenvalues --  -10.70432 -10.64229 -10.63205 -10.61599 -10.59650
 Alpha  occ. eigenvalues --  -10.58987 -10.58947 -10.58474 -10.55830 -10.54361
 Alpha  occ. eigenvalues --   -1.47153  -1.38081  -1.37670  -1.37523  -1.19706
 Alpha  occ. eigenvalues --   -1.19279  -1.08427  -1.04851  -1.01065  -0.92013
 Alpha  occ. eigenvalues --   -0.91118  -0.89084  -0.83310  -0.81310  -0.77824
 Alpha  occ. eigenvalues --   -0.75171  -0.72043  -0.70270  -0.69861  -0.69449
 Alpha  occ. eigenvalues --   -0.69244  -0.67290  -0.65773  -0.64664  -0.63183
 Alpha  occ. eigenvalues --   -0.61488  -0.60289  -0.57426  -0.57352  -0.57083
 Alpha  occ. eigenvalues --   -0.55391  -0.54944  -0.54521  -0.53857  -0.53290
 Alpha  occ. eigenvalues --   -0.52277  -0.51522  -0.51182  -0.50863  -0.49191
 Alpha  occ. eigenvalues --   -0.48706  -0.47828  -0.46365  -0.44689  -0.43454
 Alpha  occ. eigenvalues --   -0.41726  -0.41245  -0.40504  -0.39896  -0.38631
 Alpha  occ. eigenvalues --   -0.38597  -0.36343  -0.34891  -0.33672  -0.29831
 Alpha virt. eigenvalues --   -0.05829  -0.01607  -0.00630   0.01541   0.02092
 Alpha virt. eigenvalues --    0.02693   0.03099   0.03469   0.03773   0.04763
 Alpha virt. eigenvalues --    0.05018   0.05349   0.05977   0.06803   0.06944

 Mulliken charges:
               1
     1  C   -0.734668
     2  C   -0.346373
     3  C   -0.146451
     4  N   -0.632400
     5  C    0.830692
     6  O   -0.589851
     7  N   -0.650451
     8  C    0.087618
     9  C    0.810723
    10  C   -1.486032
    11  C    0.005055
    12  C   -1.371650
    13  C    0.503096
    14  H    0.219589
    15  H    0.219154
    16  H    0.220580
    17  H    0.213169
    18  H    0.230189
    19  H    0.246303
    20  H    0.226984
    21  H    0.420148
    22  H    0.445393
    23  H    0.315696
    24  H    0.235805
    25  C    1.638941
    26  F   -0.330755
    27  F   -0.246157
    28  F   -0.291415
    29  N   -0.243600
    30  O   -0.030800
    31  O   -0.042651
    32  H    0.274120
 Sum of Mulliken charges =  -0.00000

 Dipole moment (field-independent basis, Debye):
    X=            -10.5190    Y=             -6.4501    Z=             -0.3380  Tot=             12.3437
 Quadrupole moment (field-independent basis, Debye-Ang):
   XX=           -122.5996   YY=           -109.1615   ZZ=           -118.4765
   XY=             10.2818   XZ=              2.6793   YZ=              2.3210

  Exact polarizability: 274.471  -5.757 183.621  -0.756  -7.122 114.659
 Approx polarizability: 247.404  -0.086 217.686  -1.128 -13.038 138.794

                      1                      2                      3
                      A                      A                      A
 Frequencies --     19.3365                26.5973                47.1658
 Red. masses --      4.4932                 3.8715                 5.6927
 Frc consts  --      0.0010                 0.0016                 0.0075
 IR Inten    --      0.3114                10.0679                 5.9187

                      4                      5                      6
                      A                      A                      A
 Frequencies --     50.7824                57.6902                70.8188
 Red. masses --      4.8786                 4.4795                 2.9949
 Frc consts  --      0.0074                 0.0088                 0.0088
 IR Inten    --      2.1962                 0.8086                 4.3228

                      7                      8                      9
                      A                      A                      A
 Frequencies --     97.5752               109.5947               130.6261
 Red. masses --      9.8491                 4.7366                 6.2153
 Frc consts  --      0.0552                 0.0335                 0.0625
 IR Inten    --      0.1492                 1.0418                 5.0354

                     10                     11                     12
                      A                      A                      A
 Frequencies --    149.2325               185.6515               192.5002
 Red. masses --      7.5349                 4.1826                 7.1551
 Frc consts  --      0.0989                 0.0849                 0.1562
 IR Inten    --      0.4427                 5.1900                 1.4233

                     13                     14                     15
                      A                      A                      A
 Frequencies --    223.0731               239.7072               242.1209
 Red. masses --      7.1004                 1.1373                 3.9504
 Frc consts  --      0.2082                 0.0385                 0.1364
 IR Inten    --      0.1067                 0.1072                13.2890

                     16                     17                     18
                      A                      A                      A
 Frequencies --    272.4267               292.3036               306.9880
 Red. masses --      9.0784                 4.9504                 1.4318
 Frc consts  --      0.3970                 0.2492                 0.0795
 IR Inten    --      2.2493                 7.0948                78.6590

                     19                     20                     21
                      A                      A                      A
 Frequencies --    329.1247               344.8153               376.6810
 Red. masses --      7.0127                 4.2774                 9.3671
 Frc consts  --      0.4476                 0.2996                 0.7831
 IR Inten    --      0.8438                 9.4575                 4.2159

                     22                     23                     24
                      A                      A                      A
 Frequencies --    408.9635               410.8779               460.6788
 Red. masses --      7.1085                 5.0524                 3.8521
 Frc consts  --      0.7005                 0.5025                 0.4817
 IR Inten    --      2.5316                 5.6756                 6.1572

                     25                     26                     27
                      A                      A                      A
 Frequencies --    516.8067               522.1042               528.7277
 Red. masses --      5.4655                 1.2268                11.0887
 Frc consts  --      0.8601                 0.1970                 1.8264
 IR Inten    --     13.2359               153.2321                 2.6619

                     28                     29                     30
                      A                      A                      A
 Frequencies --    562.7977               614.9562               654.8466
 Red. masses --      7.0656                 6.0229                 4.8569
 Frc consts  --      1.3186                 1.3420                 1.2271
 IR Inten    --      7.2993                 6.7661                 4.1740

                     31                     32                     33
                      A                      A                      A
 Frequencies --    667.2004               693.3105               723.8701
 Red. masses --      8.1913                 7.7852                 6.0761
 Frc consts  --      2.1484                 2.2048                 1.8759
 IR Inten    --     12.2007                11.3014                 8.9071

                     34                     35                     36
                      A                      A                      A
 Frequencies --    756.0535               768.7094               776.9087
 Red. masses --      1.8180                 2.0536                 8.8643
 Frc consts  --      0.6123                 0.7150                 3.1524
 IR Inten    --     15.1922                 2.6171                 5.8225

                     37                     38                     39
                      A                      A                      A
 Frequencies --    786.3028               799.4513               862.5040
 Red. masses --      5.2188                 5.9862                 1.7198
 Frc consts  --      1.9011                 2.2541                 0.7538
 IR Inten    --     16.7916                22.8834                34.0471

                     40                     41                     42
                      A                      A                      A
 Frequencies --    876.7893               902.4689               929.8465
 Red. masses --     10.1236                 1.1759                 1.8085
 Frc consts  --      4.5854                 0.5643                 0.9213
 IR Inten    --     35.2183                 1.8883                 0.1617

                     43                     44                     45
                      A                      A                      A
 Frequencies --    945.9654               961.4397               994.5764
 Red. masses --      1.4002                 4.7758                 1.3427
 Frc consts  --      0.7382                 2.6010                 0.7825
 IR Inten    --     26.3161                35.6539                 2.9808

                     46                     47                     48
                      A                      A                      A
 Frequencies --   1048.0423              1069.4026              1083.2064
 Red. masses --      4.3011                 4.3989                 2.5450
 Frc consts  --      2.7835                 2.9640                 1.7594
 IR Inten    --     12.8925                75.5946                 7.0051

                     49                     50                     51
                      A                      A                      A
 Frequencies --   1150.0163              1167.6678              1171.9638
 Red. masses --      2.7409                 2.6791                 1.8743
 Frc consts  --      2.1357                 2.1522                 1.5168
 IR Inten    --     12.1107                 5.6576                46.8883

                     52                     53                     54
                      A                      A                      A
 Frequencies --   1183.1668              1205.9741              1226.8071
 Red. masses --      1.7846                 3.0100                 5.3562
 Frc consts  --      1.4719                 2.5793                 4.7496
 IR Inten    --      4.7802               125.1041               289.7122

                     55                     56                     57
                      A                      A                      A
 Frequencies --   1231.9062              1252.7067              1283.6373
 Red. masses --      3.7140                 1.6698                 1.2759
 Frc consts  --      3.3209                 1.5439                 1.2386
 IR Inten    --    379.2014               320.8737               135.1758

                     58                     59                     60
                      A                      A                      A
 Frequencies --   1295.9655              1309.3293              1326.1447
 Red. masses --      2.4782                 1.6546                 1.1720
 Frc consts  --      2.4523                 1.6712                 1.2144
 IR Inten    --    125.1823                56.9677                32.8954

                     61                     62                     63
                      A                      A                      A
 Frequencies --   1339.5286              1353.5807              1389.6715
 Red. masses --      2.4409                 1.7256                 4.7748
 Frc consts  --      2.5805                 1.8628                 5.4329
 IR Inten    --     93.8397                52.0647               303.4925

                     64                     65                     66
                      A                      A                      A
 Frequencies --   1427.1003              1436.6601              1470.8183
 Red. masses --      1.4954                 1.3523                 9.2779
 Frc consts  --      1.7944                 1.6445                11.8254
 IR Inten    --      1.0967                 2.2527              1043.9539

                     67                     68                     69
                      A                      A                      A
 Frequencies --   1484.4235              1509.6635              1519.6145
 Red. masses --      5.9819                 1.0608                 1.0399
 Frc consts  --      7.7662                 1.4245                 1.4148
 IR Inten    --     48.0304                 7.9055                11.6850

                     70                     71                     72
                      A                      A                      A
 Frequencies --   1522.4183              1535.4153              1547.5301
 Red. masses --      1.0753                 1.0980                 2.0905
 Frc consts  --      1.4684                 1.5251                 2.9497
 IR Inten    --      3.7223                 5.3432               210.5425

                     73                     74                     75
                      A                      A                      A
 Frequencies --   1563.9648              1607.9715              1666.8206
 Red. masses --      2.2649                 2.2447                 6.3185
 Frc consts  --      3.2641                 3.4195                10.3430
 IR Inten    --    397.7432               658.6851               194.1095

                     76                     77                     78
                      A                      A                      A
 Frequencies --   1689.2230              1715.4884              1810.7308
 Red. masses --      6.2093                10.3639                 7.5793
 Frc consts  --     10.4392                17.9700                14.6415
 IR Inten    --    115.4560               297.4352               395.8789

                     79                     80                     81
                      A                      A                      A
 Frequencies --   3062.0508              3067.8995              3080.3473
 Red. masses --      1.0623                 1.0700                 1.0367
 Frc consts  --      5.8684                 5.9335                 5.7958
 IR Inten    --     22.3519                42.4863                34.7633

                     82                     83                     84
                      A                      A                      A
 Frequencies --   3106.2730              3142.3645              3151.4696
 Red. masses --      1.0977                 1.0985                 1.1030
 Frc consts  --      6.2404                 6.3908                 6.4541
 IR Inten    --     18.5481                 3.1622                59.2491

                     85                     86                     87
                      A                      A                      A
 Frequencies --   3159.7743              3221.9878              3268.0944
 Red. masses --      1.1021                 1.0919                 1.0940
 Frc consts  --      6.4828                 6.6788                 6.8840
 IR Inten    --     32.0918                 6.4238                 3.8551

                     88                     89                     90
                      A                      A                      A
 Frequencies --   3311.3878              3618.0457              3632.9246
 Red. masses --      1.0913                 1.0780                 1.0782
 Frc consts  --      7.0506                 8.3137                 8.3845
 IR Inten    --     36.0384                30.0420                88.2044

 - Thermochemistry -
 -------------------
 Temperature   298.150 Kelvin.  Pressure   1.00000 Atm.
 Atom     1 has atomic number  6 and mass  12.00000

 Molecular mass:   291.08308 amu.
 Principal axes and moments of inertia in atomic units:
                           1         2         3
     Eigenvalues --  2303.12038********************
           X            0.99996  -0.00846   0.00047
           Y            0.00846   0.99996  -0.00164
           Z           -0.00046   0.00165   1.00000
 This molecule is an asymmetric top.
 Rotational symmetry number  1.
 Warning -- assumption of classical behavior for rotation
           may cause significant error
 Rotational temperatures (Kelvin)      0.03761     0.00636     0.00560
 Rotational constants (GHZ):           0.78361     0.13258     0.11668
 Zero-point vibrational energy     629894.6 (Joules/Mol)
                                  150.54841 (Kcal/Mol)
 Warning -- explicit consideration of  29 degrees of freedom as
           vibrations may cause significant error
 Vibrational temperatures:     27.82    38.27    67.86    73.06    83.00
          (Kelvin)            101.89   140.39   157.68   187.94   214.71
                              267.11   276.96   320.95   344.88   348.36
                              391.96   420.56   441.69   473.54   496.11
                              541.96   588.41   591.16   662.81   743.57
                              751.19   760.72   809.74   884.78   942.18
                              959.95   997.52  1041.49  1087.79  1106.00
                             1117.80  1131.31  1150.23  1240.95  1261.50
                             1298.45  1337.84  1361.03  1383.30  1430.97
                             1507.90  1538.63  1558.49  1654.61  1680.01
                             1686.19  1702.31  1735.13  1765.10  1772.44
                             1802.36  1846.87  1864.60  1883.83  1908.02
                             1927.28  1947.50  1999.42  2053.28  2067.03
                             2116.18  2135.75  2172.07  2186.38  2190.42
                             2209.12  2226.55  2250.19  2313.51  2398.18
                             2430.41  2468.20  2605.23  4405.60  4414.02
                             4431.93  4469.23  4521.16  4534.26  4546.20
                             4635.72  4702.05  4764.34  5205.55  5226.96

 Zero-point correction=                           0.239914 (Hartree/Particle)
 Thermal correction to Energy=                    0.259074
 Thermal correction to Enthalpy=                  0.260019
 Thermal correction to Gibbs Free Energy=         0.189463
 Sum of electronic and zero-point Energies=          -1115.169975
 Sum of electronic and thermal Energies=             -1115.150815
 Sum of electronic and thermal Enthalpies=           -1115.149871
 Sum of electronic and thermal Free Energies=        -1115.220427

                     E (Thermal)             CV                S
                      KCal/Mol        Cal/Mol-Kelvin    Cal/Mol-Kelvin
 Total                  162.572             69.007            148.497
 Electronic               0.000              0.000              0.000
 Translational            0.889              2.981             42.903
 Rotational               0.889              2.981             34.538
 Vibrational            160.794             63.046             71.056
 Vibration     1          0.593              1.986              6.701
 Vibration     2          0.593              1.984              6.068
 Vibration     3          0.595              1.979              4.933
 Vibration     4          0.595              1.977              4.787
 Vibration     5          0.596              1.974              4.535
 Vibration     6          0.598              1.968              4.130
 Vibration     7          0.603              1.951              3.502
 Vibration     8          0.606              1.942              3.276
 Vibration     9          0.612              1.923              2.937
 Vibration    10          0.618              1.904              2.682
 Vibration    11          0.632              1.859              2.271
 Vibration    12          0.634              1.850              2.204
 Vibration    13          0.649              1.806              1.934
 Vibration    14          0.657              1.780              1.805
 Vibration    15          0.658              1.776              1.787
 Vibration    16          0.675              1.724              1.581
 Vibration    17          0.688              1.688              1.461
 Vibration    18          0.697              1.660              1.379
 Vibration    19          0.712              1.617              1.264
 Vibration    20          0.723              1.586              1.190
 Vibration    21          0.747              1.520              1.052
 Vibration    22          0.773              1.451              0.930
 Vibration    23          0.775              1.447              0.924
 Vibration    24          0.819              1.337              0.764
 Vibration    25          0.872              1.213              0.617
 Vibration    26          0.877              1.201              0.605
 Vibration    27          0.884              1.186              0.590
 Vibration    28          0.919              1.112              0.518
 Vibration    29          0.974              1.000              0.425

 Normal termination of Gaussian 09 at Fri Feb 22 17:50:21 2019.
