 Gaussian 09, Revision E.01,

 ----------------------------------------------------------------------
 # M062X/Gen 6D SCF=Tight INT(grid=ultrafine) OPT IOP(2/17=4) SCRF=(SMD
 ,Solvent=h2o) maxdisk=2684354560
 ----------------------------------------------------------------------

 ----------------------------------
 3TMF4Nitro.M062X_6-31pGd_opt_water
 ----------------------------------
 Symbolic Z-matrix:
 Charge =  0 Multiplicity = 1

 SCF Done:  E(RM062X) =  -1115.39169330     A.U. after   16 cycles
 SCF Done:  E(RM062X) =  -1115.41351067     A.U. after   14 cycles
 SCF Done:  E(RM062X) =  -1115.41327454     A.U. after   14 cycles
 SCF Done:  E(RM062X) =  -1115.41489129     A.U. after   11 cycles
 SCF Done:  E(RM062X) =  -1115.41504507     A.U. after   13 cycles
 SCF Done:  E(RM062X) =  -1115.41529879     A.U. after   13 cycles
 SCF Done:  E(RM062X) =  -1115.41455616     A.U. after   13 cycles
 SCF Done:  E(RM062X) =  -1115.41532662     A.U. after    9 cycles
 SCF Done:  E(RM062X) =  -1115.41535309     A.U. after   12 cycles
 SCF Done:  E(RM062X) =  -1115.41534256     A.U. after   12 cycles
 Optimization completed.
    -- Stationary point found.
 Normal termination of Gaussian 09 at Tue Oct 30 12:46:42 2018.
 Gaussian 09:  ES64L-G09RevE.01 30-Nov-2015

 ----------------------------------------------------------------------
 # M062X/Gen 6D SCF=Tight INT(grid=ultrafine) OPT IOP(2/17=4) SCRF=(SMD
 ,Solvent=h2o) Freq=Noraman maxdisk=2684354560 geom=check guess=read IO
 P(2/17=4)
 ----------------------------------------------------------------------

 ----------------------------------
 3TMF4Nitro.M062X_6-31pGd_opt_water
 ----------------------------------
 Structure from the checkpoint file:  "3TMF4Nitro.M062X_6-31pGd_opt_water.chk"
 Charge =  0 Multiplicity = 1

 SCF Done:  E(RM062X) =  -1115.41609763     A.U. after   13 cycles
 SCF Done:  E(RM062X) =  -1115.41609912     A.U. after   12 cycles
 SCF Done:  E(RM062X) =  -1115.41609971     A.U. after   12 cycles
 SCF Done:  E(RM062X) =  -1115.41610013     A.U. after   10 cycles
 SCF Done:  E(RM062X) =  -1115.41610048     A.U. after   11 cycles
 SCF Done:  E(RM062X) =  -1115.41610095     A.U. after   11 cycles
 SCF Done:  E(RM062X) =  -1115.41610170     A.U. after   12 cycles
 SCF Done:  E(RM062X) =  -1115.41610202     A.U. after   11 cycles
 SCF Done:  E(RM062X) =  -1115.41610208     A.U. after   10 cycles
 Optimization completed.
    -- Stationary point found.
 Normal termination of Gaussian 09 at Tue Oct 30 16:57:50 2018.

 ----------------------------------------------------------------------
 #N Geom=AllCheck Guess=TCheck SCRF=Check Test GenChk RM062X/ChkBas Fre
 q
 ----------------------------------------------------------------------

 Structure from the checkpoint file:  "3TMF4Nitro.M062X_6-31pGd_opt_water.chk"
 ----------------------------------
 3TMF4Nitro.M062X_6-31pGd_opt_water
 ----------------------------------
 Charge =  0 Multiplicity = 1

                         Standard orientation:
 ---------------------------------------------------------------------
 Center     Atomic      Atomic             Coordinates (Angstroms)
 Number     Number       Type             X           Y           Z
 ---------------------------------------------------------------------
      1          6           0       -7.435501    0.573294    0.083805
      2          6           0       -6.252912   -0.380582   -0.048916
      3          6           0       -4.932226    0.364570    0.068577
      4          7           0       -3.815918   -0.564318   -0.064165
      5          6           0       -2.542051   -0.141370    0.029649
      6          8           0       -2.243239    1.046630    0.208937
      7          7           0       -1.592107   -1.148710   -0.087232
      8          6           0       -0.213739   -1.030555   -0.051529
      9          6           0        0.464151    0.203583   -0.069694
     10          6           0        0.534147   -2.218476   -0.030878
     11          6           0        1.914508   -2.175885    0.000715
     12          6           0        2.572543   -0.949844    0.025211
     13          6           0        1.849433    0.251118   -0.021755
     14          1           0       -8.383912    0.034650   -0.000380
     15          1           0       -7.410990    1.338530   -0.699751
     16          1           0       -7.421071    1.082352    1.053749
     17          1           0       -6.292418   -0.894880   -1.016923
     18          1           0       -6.302838   -1.151063    0.730172
     19          1           0       -4.868168    0.871598    1.038366
     20          1           0       -4.859507    1.131757   -0.710985
     21          1           0       -4.017880   -1.548527   -0.205477
     22          1           0       -1.943043   -2.100005   -0.156531
     23          1           0       -0.100163    1.120914   -0.138420
     24          1           0        0.024464   -3.177333   -0.029791
     25          6           0        2.488343    1.623555   -0.107770
     26          9           0        1.601649    2.544220   -0.524526
     27          9           0        3.504203    1.658927   -0.987022
     28          9           0        2.951470    2.064069    1.072996
     29          7           0        4.020994   -0.988485    0.141632
     30          8           0        4.607135   -1.971472   -0.291684
     31          8           0        4.585861   -0.053327    0.689146
     32          1           0        2.490604   -3.093443    0.035589
 ---------------------------------------------------------------------

 SCF Done:  E(RM062X) =  -1115.41610208     A.U. after    2 cycles

 The electronic state is 1-A.
 Alpha  occ. eigenvalues --  -25.31170 -25.31140 -25.30922 -19.70428 -19.70340
 Alpha  occ. eigenvalues --  -19.62984 -15.03642 -14.81597 -14.79291 -10.82886
 Alpha  occ. eigenvalues --  -10.70128 -10.63686 -10.63147 -10.61642 -10.58997
 Alpha  occ. eigenvalues --  -10.58232 -10.57893 -10.57851 -10.54273 -10.52999
 Alpha  occ. eigenvalues --   -1.47942  -1.39036  -1.38491  -1.38331  -1.20152
 Alpha  occ. eigenvalues --   -1.19117  -1.07649  -1.04099  -1.00918  -0.92033
 Alpha  occ. eigenvalues --   -0.91028  -0.88051  -0.83443  -0.81202  -0.77294
 Alpha  occ. eigenvalues --   -0.74920  -0.72311  -0.70285  -0.70028  -0.69493
 Alpha  occ. eigenvalues --   -0.68781  -0.67422  -0.65556  -0.64657  -0.63796
 Alpha  occ. eigenvalues --   -0.62272  -0.60057  -0.58299  -0.58077  -0.56278
 Alpha  occ. eigenvalues --   -0.55398  -0.54847  -0.54178  -0.54089  -0.52744
 Alpha  occ. eigenvalues --   -0.52418  -0.52056  -0.51380  -0.50164  -0.48891
 Alpha  occ. eigenvalues --   -0.48258  -0.46796  -0.45566  -0.44281  -0.42107
 Alpha  occ. eigenvalues --   -0.41531  -0.41146  -0.40114  -0.40022  -0.39701
 Alpha  occ. eigenvalues --   -0.39117  -0.36544  -0.34456  -0.33345  -0.29092
 Alpha virt. eigenvalues --   -0.07006  -0.01066   0.01360   0.01770   0.02580
 Alpha virt. eigenvalues --    0.03195   0.04006   0.04037   0.04223   0.04830
 Alpha virt. eigenvalues --    0.05461   0.05874   0.05990   0.07195   0.07452

 Mulliken charges:
               1
     1  C   -0.742338
     2  C   -0.388629
     3  C   -0.156012
     4  N   -0.680642
     5  C    0.878749
     6  O   -0.733418
     7  N   -0.639181
     8  C    0.227304
     9  C    0.723778
    10  C   -1.492772
    11  C    0.074623
    12  C   -1.430937
    13  C    0.468653
    14  H    0.224155
    15  H    0.222702
    16  H    0.222699
    17  H    0.235757
    18  H    0.235462
    19  H    0.241086
    20  H    0.240871
    21  H    0.490573
    22  H    0.505017
    23  H    0.307064
    24  H    0.282976
    25  C    1.672086
    26  F   -0.339229
    27  F   -0.298601
    28  F   -0.263011
    29  N   -0.167807
    30  O   -0.099365
    31  O   -0.119426
    32  H    0.297816
 Sum of Mulliken charges =  -0.00000

 Dipole moment (field-independent basis, Debye):
    X=            -13.0907    Y=             -8.9983    Z=             -1.0724  Tot=             15.9212
 Quadrupole moment (field-independent basis, Debye-Ang):
   XX=           -126.5526   YY=           -107.5183   ZZ=           -118.3667
   XY=             15.3424   XZ=              0.5935   YZ=             -1.6691

  Exact polarizability: 348.480  -8.889 241.379   5.382  12.367 149.628
 Approx polarizability: 264.510  -1.531 215.876   4.329  13.095 135.983

                      1                      2                      3
                      A                      A                      A
 Frequencies --     16.3875                20.0679                43.8198
 Red. masses --      3.0538                 3.9108                 6.1734
 Frc consts  --      0.0005                 0.0009                 0.0070
 IR Inten    --      3.4818                 2.5846                10.8841

                      4                      5                      6
                      A                      A                      A
 Frequencies --     46.3604                53.5976                60.3714
 Red. masses --      3.2226                 5.3973                 5.4264
 Frc consts  --      0.0041                 0.0091                 0.0117
 IR Inten    --     30.2148                 0.9072                 8.3366

                      7                      8                      9
                      A                      A                      A
 Frequencies --     99.4942               107.2179               136.9565
 Red. masses --     11.5815                 5.2148                 5.7890
 Frc consts  --      0.0675                 0.0353                 0.0640
 IR Inten    --      0.3549                 2.0305                 2.9063

                     10                     11                     12
                      A                      A                      A
 Frequencies --    149.1287               157.6015               194.9197
 Red. masses --      4.0052                 4.6712                11.8167
 Frc consts  --      0.0525                 0.0684                 0.2645
 IR Inten    --      9.6364                 9.1525                 1.7392

                     13                     14                     15
                      A                      A                      A
 Frequencies --    223.9379               236.1179               245.6166
 Red. masses --      7.4852                 1.1449                 5.4921
 Frc consts  --      0.2212                 0.0376                 0.1952
 IR Inten    --      2.2859                 0.5017                11.1867

                     16                     17                     18
                      A                      A                      A
 Frequencies --    272.6679               293.1013               328.8947
 Red. masses --      8.8766                 7.4540                 3.7035
 Frc consts  --      0.3888                 0.3773                 0.2360
 IR Inten    --      1.3257                 5.4435                13.8472

                     19                     20                     21
                      A                      A                      A
 Frequencies --    336.4161               350.1463               377.7283
 Red. masses --      1.3196                 4.9766                10.1254
 Frc consts  --      0.0880                 0.3595                 0.8512
 IR Inten    --     64.9852                24.8065                 5.2007

                     22                     23                     24
                      A                      A                      A
 Frequencies --    408.0422               409.7674               457.3377
 Red. masses --      5.5177                 6.5874                 3.6743
 Frc consts  --      0.5413                 0.6517                 0.4528
 IR Inten    --     11.2649                 1.2065                 7.9847

                     25                     26                     27
                      A                      A                      A
 Frequencies --    513.4287               528.2539               538.6351
 Red. masses --      5.9091                 5.0398                 1.3725
 Frc consts  --      0.9178                 0.8286                 0.2346
 IR Inten    --     19.4074                69.7460               190.9787

                     28                     29                     30
                      A                      A                      A
 Frequencies --    559.0863               615.4409               656.1961
 Red. masses --      7.6790                 6.3568                 5.2831
 Frc consts  --      1.4142                 1.4186                 1.3403
 IR Inten    --      7.9116                 9.1653                 7.4367

                     31                     32                     33
                      A                      A                      A
 Frequencies --    666.2089               691.0431               718.5678
 Red. masses --      7.4421                 7.9514                 5.4359
 Frc consts  --      1.9461                 2.2372                 1.6537
 IR Inten    --     12.5419                15.9689                17.4520

                     34                     35                     36
                      A                      A                      A
 Frequencies --    756.4248               767.5904               773.4013
 Red. masses --      1.4379                 2.7977                 9.3151
 Frc consts  --      0.4847                 0.9712                 3.2828
 IR Inten    --     24.9190                10.9790                11.4890

                     37                     38                     39
                      A                      A                      A
 Frequencies --    782.6407               795.9947               869.3896
 Red. masses --      5.3924                 6.8845                 1.8543
 Frc consts  --      1.9461                 2.5700                 0.8258
 IR Inten    --     29.5648                34.8710                48.4213

                     40                     41                     42
                      A                      A                      A
 Frequencies --    872.6570               905.3015               918.8926
 Red. masses --      6.0274                 1.1501                 1.4899
 Frc consts  --      2.7044                 0.5553                 0.7412
 IR Inten    --     69.5831                 2.7223                62.9675

                     43                     44                     45
                      A                      A                      A
 Frequencies --    929.4226               959.9008              1003.5852
 Red. masses --      1.7691                 4.9548                 1.3359
 Frc consts  --      0.9004                 2.6899                 0.7927
 IR Inten    --      0.7854                36.6493                 2.1996

                     46                     47                     48
                      A                      A                      A
 Frequencies --   1050.5495              1066.3398              1085.3729
 Red. masses --      4.4156                 4.4716                 2.5277
 Frc consts  --      2.8713                 2.9958                 1.7544
 IR Inten    --     53.8663               142.2563                10.6543

                     49                     50                     51
                      A                      A                      A
 Frequencies --   1148.0900              1164.7280              1173.4260
 Red. masses --      2.6259                 2.1041                 3.3717
 Frc consts  --      2.0393                 1.6818                 2.7353
 IR Inten    --     41.8275               305.5842                 2.7056

                     52                     53                     54
                      A                      A                      A
 Frequencies --   1181.4648              1184.9687              1192.5802
 Red. masses --      1.6124                10.4408                 7.4232
 Frc consts  --      1.3261                 8.6377                 6.2204
 IR Inten    --      0.1058               458.5743               551.4047

                     55                     56                     57
                      A                      A                      A
 Frequencies --   1227.1922              1268.6496              1281.8455
 Red. masses --      1.7485                 1.8682                 1.1901
 Frc consts  --      1.5514                 1.7716                 1.1522
 IR Inten    --     91.3182              1017.1008                 0.5938

                     58                     59                     60
                      A                      A                      A
 Frequencies --   1292.3634              1308.0179              1328.1158
 Red. masses --      2.0664                 1.9567                 1.0717
 Frc consts  --      2.0334                 1.9725                 1.1138
 IR Inten    --    153.4933               142.0357                 0.7695

                     61                     62                     63
                      A                      A                      A
 Frequencies --   1338.4536              1355.6951              1392.7746
 Red. masses --      1.9396                 2.1697                 5.5978
 Frc consts  --      2.0473                 2.3495                 6.3977
 IR Inten    --    122.5040               125.5608              1089.3996

                     64                     65                     66
                      A                      A                      A
 Frequencies --   1420.4852              1429.0767              1440.1337
 Red. masses --      1.3040                 1.6716                 6.0294
 Frc consts  --      1.5503                 2.0113                 7.3677
 IR Inten    --     21.9969                89.9741              1198.0445

                     67                     68                     69
                      A                      A                      A
 Frequencies --   1482.4075              1490.2857              1502.3844
 Red. masses --      5.3456                 1.0590                 1.0398
 Frc consts  --      6.9213                 1.3857                 1.3828
 IR Inten    --    198.3564                 7.4017                11.8909

                     70                     71                     72
                      A                      A                      A
 Frequencies --   1510.8476              1530.2376              1546.2998
 Red. masses --      1.0846                 1.0897                 2.3871
 Frc consts  --      1.4587                 1.5034                 3.3629
 IR Inten    --      8.0695                34.1843               122.4509

                     73                     74                     75
                      A                      A                      A
 Frequencies --   1574.0610              1591.1716              1618.9879
 Red. masses --      2.2581                 3.2204                 5.8404
 Frc consts  --      3.2964                 4.8039                 9.0194
 IR Inten    --    852.9689              1127.4112               360.5101

                     76                     77                     78
                      A                      A                      A
 Frequencies --   1668.3966              1692.4089              1718.4318
 Red. masses --      7.2504                 5.9543                 3.9637
 Frc consts  --     11.8907                10.0482                 6.8964
 IR Inten    --    254.8663                86.0606               855.6514

                     79                     80                     81
                      A                      A                      A
 Frequencies --   3074.4658              3077.7065              3084.2137
 Red. masses --      1.0601                 1.0365                 1.0575
 Frc consts  --      5.9041                 5.7849                 5.9269
 IR Inten    --     14.2484                30.3838                89.5832

                     82                     83                     84
                      A                      A                      A
 Frequencies --   3108.0655              3128.7441              3148.1871
 Red. masses --      1.1039                 1.1077                 1.1041
 Frc consts  --      6.2830                 6.3886                 6.4472
 IR Inten    --      0.2884                47.5982                94.9764

                     85                     86                     87
                      A                      A                      A
 Frequencies --   3157.5315              3237.8499              3271.4246
 Red. masses --      1.1023                 1.0933                 1.0946
 Frc consts  --      6.4750                 6.7529                 6.9019
 IR Inten    --     47.2219                 1.6984                 8.0330

                     88                     89                     90
                      A                      A                      A
 Frequencies --   3318.5513              3584.3502              3626.0851
 Red. masses --      1.0915                 1.0787                 1.0797
 Frc consts  --      7.0826                 8.1649                 8.3642
 IR Inten    --     42.4471               136.1054               206.3008

 - Thermochemistry -
 -------------------
 Temperature   298.150 Kelvin.  Pressure   1.00000 Atm.
 Atom     1 has atomic number  6 and mass  12.00000

 Molecular mass:   291.08308 amu.
 Principal axes and moments of inertia in atomic units:
                           1         2         3
     Eigenvalues --  2313.31428********************
           X            0.99997  -0.00829  -0.00006
           Y            0.00829   0.99996   0.00302
           Z            0.00003  -0.00302   1.00000
 This molecule is an asymmetric top.
 Rotational symmetry number  1.
 Warning -- assumption of classical behavior for rotation
           may cause significant error
 Rotational temperatures (Kelvin)      0.03744     0.00638     0.00560
 Rotational constants (GHZ):           0.78015     0.13289     0.11675
 Zero-point vibrational energy     627568.0 (Joules/Mol)
                                  149.99235 (Kcal/Mol)
 Warning -- explicit consideration of  29 degrees of freedom as
           vibrations may cause significant error
 Vibrational temperatures:     23.58    28.87    63.05    66.70    77.11
          (Kelvin)             86.86   143.15   154.26   197.05   214.56
                              226.75   280.45   322.20   339.72   353.39
                              392.31   421.71   473.21   484.03   503.78
                              543.47   587.08   589.56   658.01   738.71
                              760.04   774.97   804.40   885.48   944.12
                              958.52   994.26  1033.86  1088.33  1104.39
                             1112.75  1126.04  1145.26  1250.86  1255.56
                             1302.53  1322.08  1337.23  1381.08  1443.93
                             1511.50  1534.22  1561.61  1651.84  1675.78
                             1688.30  1699.86  1704.90  1715.85  1765.65
                             1825.30  1844.29  1859.42  1881.94  1910.86
                             1925.73  1950.54  2003.89  2043.76  2056.12
                             2072.03  2132.85  2144.19  2161.59  2173.77
                             2201.67  2224.78  2264.72  2289.34  2329.36
                             2400.45  2435.00  2472.44  4423.47  4428.13
                             4437.49  4471.81  4501.56  4529.53  4542.98
                             4658.54  4706.84  4774.65  5157.07  5217.12

 Zero-point correction=                           0.239028 (Hartree/Particle)
 Thermal correction to Energy=                    0.258258
 Thermal correction to Enthalpy=                  0.259202
 Thermal correction to Gibbs Free Energy=         0.187827
 Sum of electronic and zero-point Energies=          -1115.177074
 Sum of electronic and thermal Energies=             -1115.157844
 Sum of electronic and thermal Enthalpies=           -1115.156900
 Sum of electronic and thermal Free Energies=        -1115.228275

                     E (Thermal)             CV                S
                      KCal/Mol        Cal/Mol-Kelvin    Cal/Mol-Kelvin
 Total                  162.059             69.100            150.222
 Electronic               0.000              0.000              0.000
 Translational            0.889              2.981             42.903
 Rotational               0.889              2.981             34.539
 Vibrational            160.282             63.138             72.780
 Vibration     1          0.593              1.986              7.030
 Vibration     2          0.593              1.986              6.627
 Vibration     3          0.595              1.980              5.078
 Vibration     4          0.595              1.979              4.967
 Vibration     5          0.596              1.976              4.680
 Vibration     6          0.597              1.973              4.445
 Vibration     7          0.604              1.949              3.464
 Vibration     8          0.606              1.943              3.319
 Vibration     9          0.614              1.916              2.846
 Vibration    10          0.618              1.904              2.683
 Vibration    11          0.621              1.894              2.578
 Vibration    12          0.636              1.847              2.181
 Vibration    13          0.649              1.805              1.927
 Vibration    14          0.655              1.785              1.832
 Vibration    15          0.660              1.770              1.762
 Vibration    16          0.676              1.724              1.579
 Vibration    17          0.688              1.687              1.456
 Vibration    18          0.712              1.618              1.266
 Vibration    19          0.717              1.603              1.229
 Vibration    20          0.727              1.575              1.166
 Vibration    21          0.748              1.518              1.048
 Vibration    22          0.773              1.453              0.934
 Vibration    23          0.774              1.449              0.927
 Vibration    24          0.815              1.345              0.774
 Vibration    25          0.868              1.220              0.625
 Vibration    26          0.883              1.187              0.591
 Vibration    27          0.894              1.165              0.568
 Vibration    28          0.915              1.120              0.526
 Vibration    29          0.975              0.999              0.424

 Normal termination of Gaussian 09 at Tue Oct 30 18:08:00 2018.
