 Gaussian 09, Revision E.01,

 ----------------------------------------------------------------------
 # M062X/Gen 6D SCF=Tight INT(grid=ultrafine) OPT IOP(2/17=4) SCRF=(SMD
 ,Solvent=n-Pentadecane) maxdisk=3221225472
 ----------------------------------------------------------------------

 --------------------------------------------
 3TMF4Nitro_EtO.M062X_6-31pGd_opt_Pentadecane
 --------------------------------------------
 Symbolic Z-matrix:
 Charge = -1 Multiplicity = 1

 SCF Done:  E(RM062X) =  -1383.18356621     A.U. after   16 cycles
 SCF Done:  E(RM062X) =  -1383.22538440     A.U. after   14 cycles
 SCF Done:  E(RM062X) =  -1383.23556136     A.U. after   17 cycles
 SCF Done:  E(RM062X) =  -1383.23929340     A.U. after   17 cycles
 SCF Done:  E(RM062X) =  -1383.24143762     A.U. after   17 cycles
 SCF Done:  E(RM062X) =  -1383.24439804     A.U. after   17 cycles
 SCF Done:  E(RM062X) =  -1383.24469782     A.U. after   17 cycles
 SCF Done:  E(RM062X) =  -1383.24291942     A.U. after   17 cycles
 SCF Done:  E(RM062X) =  -1383.24558319     A.U. after   12 cycles
 SCF Done:  E(RM062X) =  -1383.24603572     A.U. after   14 cycles
 SCF Done:  E(RM062X) =  -1383.24698131     A.U. after   11 cycles
 SCF Done:  E(RM062X) =  -1383.24698150     A.U. after   11 cycles
 SCF Done:  E(RM062X) =  -1383.24698169     A.U. after   10 cycles
 SCF Done:  E(RM062X) =  -1383.24698183     A.U. after   10 cycles
 SCF Done:  E(RM062X) =  -1383.24698197     A.U. after   11 cycles
 SCF Done:  E(RM062X) =  -1383.24698215     A.U. after   11 cycles
 SCF Done:  E(RM062X) =  -1383.24698235     A.U. after   10 cycles
 SCF Done:  E(RM062X) =  -1383.24698247     A.U. after   10 cycles
 Optimization completed.
    -- Stationary point found.
 Normal termination of Gaussian 09 at Tue Feb 19 14:09:47 2019.
 Gaussian 09:  ES64L-G09RevE.01 30-Nov-2015

 ----------------------------------------------------------------------
 # M062X/Gen 6D SCF=Tight INT(grid=ultrafine) OPT IOP(2/17=4) SCRF=(SMD
 ,Solvent=n-Pentadecane) Freq=Noraman maxdisk=3221225472 geom=check gue
 ss=read IOP(2/17=4)
 ----------------------------------------------------------------------

 --------------------------------------------
 3TMF4Nitro_EtO.M062X_6-31pGd_opt_Pentadecane
 --------------------------------------------
 Structure from the checkpoint file:  "3TMF4Nitro_EtO.M062X_6-31pGd_opt_Pentadecane.chk"
 Charge = -1 Multiplicity = 1

 SCF Done:  E(RM062X) =  -1383.24698247     A.U. after    2 cycles
 Optimization completed.
    -- Stationary point found.
 Normal termination of Gaussian 09 at Tue Feb 19 14:11:23 2019.

 ----------------------------------------------------------------------
 #N Geom=AllCheck Guess=TCheck SCRF=Check Test GenChk RM062X/ChkBas Fre
 q
 ----------------------------------------------------------------------

 Structure from the checkpoint file:  "3TMF4Nitro_EtO.M062X_6-31pGd_opt_Pentadecane.chk"
 --------------------------------------------
 3TMF4Nitro_EtO.M062X_6-31pGd_opt_Pentadecane
 --------------------------------------------
 Charge = -1 Multiplicity = 1

                         Standard orientation:
 ---------------------------------------------------------------------
 Center     Atomic      Atomic             Coordinates (Angstroms)
 Number     Number       Type             X           Y           Z
 ---------------------------------------------------------------------
      1          6           0       -5.949879   -3.538983   -0.029714
      2          6           0       -5.102746   -2.269903   -0.031775
      3          6           0       -3.613113   -2.591592   -0.044257
      4          7           0       -2.840539   -1.365423   -0.041716
      5          6           0       -1.493190   -1.408526   -0.034974
      6          8           0       -0.842283   -2.455912   -0.034807
      7          7           0       -0.911442   -0.139317   -0.028527
      8          6           0        0.422155    0.166066   -0.020879
      9          6           0        1.463852   -0.790306    0.022260
     10          6           0        0.766307    1.535421   -0.036101
     11          6           0        2.089765    1.923337   -0.038811
     12          6           0        3.109146    0.971031   -0.039123
     13          6           0        2.793918   -0.397623    0.005027
     14          1           0       -7.018608   -3.301511   -0.021233
     15          1           0       -5.737356   -4.155074    0.851987
     16          1           0       -5.750181   -4.149744   -0.918091
     17          1           0       -5.330986   -1.658728    0.849655
     18          1           0       -5.344640   -1.652422   -0.905128
     19          1           0       -3.362173   -3.190686   -0.930557
     20          1           0       -3.349451   -3.200583    0.831340
     21          1           0       -3.345729   -0.459541   -0.041275
     22          1           0       -1.551949    0.688537   -0.033836
     23          1           0        1.204403   -1.837144    0.083316
     24          1           0       -0.029734    2.275131   -0.052140
     25          6           0        3.831381   -1.497165    0.121550
     26          9           0        3.269718   -2.651092    0.530653
     27          9           0        4.780220   -1.208900    1.030493
     28          9           0        4.442420   -1.778613   -1.039400
     29          7           0        4.471363    1.468767   -0.134847
     30          8           0        4.696311    2.602509    0.270741
     31          8           0        5.317433    0.749397   -0.642506
     32          1           0        2.355967    2.973922   -0.061047
     33          8           0       -4.296515    1.043550   -0.027063
     34          8           0       -2.369496    2.187485   -0.022787
     35          6           0       -3.629659    2.109290    0.000475
     36          6           0       -4.429866    3.415721    0.070955
     37          6           0       -3.586257    4.683132    0.097136
     38          1           0       -5.067044    3.351624    0.961720
     39          1           0       -5.115450    3.418670   -0.785379
     40          1           0       -2.912351    4.686739    0.959127
     41          1           0       -4.221042    5.575467    0.152619
     42          1           0       -2.965058    4.758967   -0.800402
 ---------------------------------------------------------------------

 SCF Done:  E(RM062X) =  -1383.24698247     A.U. after    1 cycles

 The electronic state is 1-A.
 Alpha  occ. eigenvalues --  -25.26015 -25.25991 -25.25727 -19.64274 -19.64120
 Alpha  occ. eigenvalues --  -19.55492 -19.53487 -19.52916 -14.97555 -14.73502
 Alpha  occ. eigenvalues --  -14.71217 -10.77658 -10.62443 -10.57975 -10.57676
 Alpha  occ. eigenvalues --  -10.57427 -10.56212 -10.53749 -10.52562 -10.52465
 Alpha  occ. eigenvalues --  -10.52026 -10.49661 -10.49618 -10.48478 -10.48145
 Alpha  occ. eigenvalues --   -1.42742  -1.33411  -1.33180  -1.32757  -1.14044
 Alpha  occ. eigenvalues --   -1.11687  -1.09548  -1.00625  -0.99718  -0.97056
 Alpha  occ. eigenvalues --   -0.94866  -0.85984  -0.85476  -0.83072  -0.80545
 Alpha  occ. eigenvalues --   -0.77899  -0.75519  -0.71893  -0.69321  -0.66945
 Alpha  occ. eigenvalues --   -0.66733  -0.65080  -0.64463  -0.63957  -0.62893
 Alpha  occ. eigenvalues --   -0.60998  -0.59378  -0.58665  -0.57422  -0.55825
 Alpha  occ. eigenvalues --   -0.54195  -0.53153  -0.52880  -0.52159  -0.50476
 Alpha  occ. eigenvalues --   -0.49593  -0.49050  -0.48872  -0.48559  -0.47179
 Alpha  occ. eigenvalues --   -0.47121  -0.46870  -0.46770  -0.46389  -0.45462
 Alpha  occ. eigenvalues --   -0.44422  -0.43873  -0.42998  -0.42766  -0.41530
 Alpha  occ. eigenvalues --   -0.40390  -0.40015  -0.39219  -0.38265  -0.37655
 Alpha  occ. eigenvalues --   -0.36456  -0.35421  -0.35379  -0.35168  -0.34410
 Alpha  occ. eigenvalues --   -0.34369  -0.33911  -0.33182  -0.29190  -0.29043
 Alpha  occ. eigenvalues --   -0.26436  -0.25888  -0.25705  -0.25094  -0.22317
 Alpha virt. eigenvalues --   -0.01127   0.04306   0.06039   0.06621   0.06924
 Alpha virt. eigenvalues --    0.07407   0.07552   0.08058   0.08152   0.08455
 Alpha virt. eigenvalues --    0.09044   0.09468   0.09791   0.10093   0.10349

 Mulliken charges:
               1
     1  C   -0.800385
     2  C   -0.363796
     3  C   -0.089831
     4  N   -0.791470
     5  C    0.723850
     6  O   -0.605934
     7  N   -0.674734
     8  C   -0.034841
     9  C   -0.174809
    10  C   -0.081611
    11  C   -0.245742
    12  C   -1.050878
    13  C    0.074511
    14  H    0.209443
    15  H    0.208392
    16  H    0.208412
    17  H    0.238274
    18  H    0.238448
    19  H    0.220745
    20  H    0.221233
    21  H    0.527918
    22  H    0.515075
    23  H    0.309931
    24  H    0.292079
    25  C    1.775146
    26  F   -0.340499
    27  F   -0.297253
    28  F   -0.255172
    29  N   -0.313223
    30  O   -0.043673
    31  O   -0.050776
    32  H    0.260038
    33  O   -0.640580
    34  O   -0.695165
    35  C    0.716637
    36  C   -0.535867
    37  C   -0.716123
    38  H    0.219719
    39  H    0.219412
    40  H    0.217567
    41  H    0.188686
    42  H    0.216847
 Sum of Mulliken charges =  -1.00000

 Dipole moment (field-independent basis, Debye):
    X=             -1.7837    Y=             -0.7695    Z=              0.2299  Tot=              1.9561
 Quadrupole moment (field-independent basis, Debye-Ang):
   XX=           -231.8618   YY=           -173.5666   ZZ=           -150.6465
   XY=              4.0487   XZ=              1.0882   YZ=             -1.1124

  Exact polarizability: 358.794  33.331 266.279  -3.706   4.281 149.673
 Approx polarizability: 332.093  21.646 279.664  -5.161   8.938 180.499

                      1                      2                      3
                      A                      A                      A
 Frequencies --     14.4070                20.5081                27.5892
 Red. masses --      7.0434                 7.8471                 4.8230
 Frc consts  --      0.0009                 0.0019                 0.0022
 IR Inten    --      0.0532                 0.0401                 0.7674

                      4                      5                      6
                      A                      A                      A
 Frequencies --     42.2168                50.0313                52.5167
 Red. masses --      8.4230                 5.1756                 1.9082
 Frc consts  --      0.0088                 0.0076                 0.0031
 IR Inten    --      1.0880                 0.3112                 0.4910

                      7                      8                      9
                      A                      A                      A
 Frequencies --     56.2777                63.3601                71.2661
 Red. masses --      3.4522                 6.2125                 4.5283
 Frc consts  --      0.0064                 0.0147                 0.0136
 IR Inten    --      0.8069                 0.1783                 2.3023

                     10                     11                     12
                      A                      A                      A
 Frequencies --     84.2616                88.5418                95.7721
 Red. masses --      2.4126                 6.7542                 6.7580
 Frc consts  --      0.0101                 0.0312                 0.0365
 IR Inten    --      1.9614                 7.3289                 8.3741

                     13                     14                     15
                      A                      A                      A
 Frequencies --    108.2532               121.6116               128.9466
 Red. masses --      8.8254                 5.2687                 4.9817
 Frc consts  --      0.0609                 0.0459                 0.0488
 IR Inten    --      5.2819                 8.8213                 6.1449

                     16                     17                     18
                      A                      A                      A
 Frequencies --    154.5749               182.4120               184.7251
 Red. masses --      5.2304                 4.5672                 6.0365
 Frc consts  --      0.0736                 0.0895                 0.1214
 IR Inten    --      1.2686                 3.8023                30.5086

                     19                     20                     21
                      A                      A                      A
 Frequencies --    193.9032               226.1130               228.0597
 Red. masses --     10.2764                 7.2120                 1.1117
 Frc consts  --      0.2276                 0.2172                 0.0341
 IR Inten    --      0.8893                 1.7888                 0.5473

                     22                     23                     24
                      A                      A                      A
 Frequencies --    239.0729               253.2540               274.2671
 Red. masses --      1.1582                 6.0144                 9.1792
 Frc consts  --      0.0390                 0.2273                 0.4068
 IR Inten    --      0.0094                 7.8744                 2.6720

                     25                     26                     27
                      A                      A                      A
 Frequencies --    296.9009               308.9732               334.1665
 Red. masses --      7.7804                 4.2106                 7.0972
 Frc consts  --      0.4041                 0.2368                 0.4669
 IR Inten    --      2.2474                26.7480                 3.3414

                     28                     29                     30
                      A                      A                      A
 Frequencies --    342.1826               378.0546               409.9829
 Red. masses --      5.0714                10.2297                 6.8400
 Frc consts  --      0.3499                 0.8614                 0.6774
 IR Inten    --     15.1631                 2.9746                 0.3430

                     31                     32                     33
                      A                      A                      A
 Frequencies --    412.3909               463.2596               517.9611
 Red. masses --      5.7677                 3.7103                 6.3824
 Frc consts  --      0.5779                 0.4691                 1.0088
 IR Inten    --     13.4565                 4.7777                15.3402

                     34                     35                     36
                      A                      A                      A
 Frequencies --    523.1352               533.0388               560.0614
 Red. masses --      5.7513                12.7028                 7.8628
 Frc consts  --      0.9274                 2.1265                 1.4531
 IR Inten    --     21.3543                 5.6391                13.5191

                     37                     38                     39
                      A                      A                      A
 Frequencies --    587.2547               617.3937               660.3755
 Red. masses --      1.9700                 6.8805                 4.7494
 Frc consts  --      0.4003                 1.5452                 1.2203
 IR Inten    --      0.6704                 1.5002                55.2538

                     40                     41                     42
                      A                      A                      A
 Frequencies --    664.4413               668.1880               692.8665
 Red. masses --      7.1803                 5.3592                 7.9894
 Frc consts  --      1.8677                 1.4098                 2.2598
 IR Inten    --     18.3481                 3.0987                16.1391

                     43                     44                     45
                      A                      A                      A
 Frequencies --    720.4505               758.6223               769.3670
 Red. masses --      5.6399                 1.4907                 2.0058
 Frc consts  --      1.7248                 0.5055                 0.6995
 IR Inten    --      6.3282                27.7882                29.7414

                     46                     47                     48
                      A                      A                      A
 Frequencies --    774.8593               782.1053               791.8370
 Red. masses --      8.6736                 7.0264                 6.7230
 Frc consts  --      3.0683                 2.5323                 2.4836
 IR Inten    --      5.1031                 7.4263                14.4037

                     49                     50                     51
                      A                      A                      A
 Frequencies --    816.4499               827.9727               875.5987
 Red. masses --      1.2738                 1.4247                 9.5799
 Frc consts  --      0.5003                 0.5754                 4.3273
 IR Inten    --      5.3263                16.0406                37.9630

                     52                     53                     54
                      A                      A                      A
 Frequencies --    879.8707               893.0281               902.9649
 Red. masses --      1.5428                 3.9908                 1.1575
 Frc consts  --      0.7037                 1.8752                 0.5560
 IR Inten    --     10.9005                41.3393                 3.3247

                     55                     56                     57
                      A                      A                      A
 Frequencies --    926.0183               942.8803               960.3467
 Red. masses --      1.7997                 1.4099                 4.6806
 Frc consts  --      0.9093                 0.7385                 2.5433
 IR Inten    --      6.8009                43.8969                 1.4583

                     58                     59                     60
                      A                      A                      A
 Frequencies --    983.6697              1018.0878              1026.9291
 Red. masses --      1.0953                 1.2823                 1.6679
 Frc consts  --      0.6244                 0.7831                 1.0364
 IR Inten    --    100.7703                 7.5669                 3.9374

                     61                     62                     63
                      A                      A                      A
 Frequencies --   1049.7748              1065.3988              1084.2725
 Red. masses --      4.4148                 4.4084                 2.5739
 Frc consts  --      2.8665                 2.9482                 1.7829
 IR Inten    --    126.0374               128.1697                 7.8972

                     64                     65                     66
                      A                      A                      A
 Frequencies --   1110.0993              1114.3667              1155.8197
 Red. masses --      1.7682                 2.3441                 2.3415
 Frc consts  --      1.2838                 1.7151                 1.8430
 IR Inten    --      0.6326                 7.0663                54.7939

                     67                     68                     69
                      A                      A                      A
 Frequencies --   1167.1804              1180.5329              1187.3246
 Red. masses --      1.9874                 1.5712                 4.0507
 Frc consts  --      1.5952                 1.2901                 3.3645
 IR Inten    --    114.3890                 0.0772                 1.5810

                     70                     71                     72
                      A                      A                      A
 Frequencies --   1199.8614              1213.4325              1229.0024
 Red. masses --      5.9266                12.2979                 1.9250
 Frc consts  --      5.0271                10.6687                 1.7131
 IR Inten    --    348.2607               304.5818                72.5950

                     73                     74                     75
                      A                      A                      A
 Frequencies --   1271.5266              1289.7528              1297.0137
 Red. masses --      1.2040                 1.1813                 2.0083
 Frc consts  --      1.1469                 1.1578                 1.9905
 IR Inten    --      0.0243                 0.0857               537.0532

                     76                     77                     78
                      A                      A                      A
 Frequencies --   1309.0803              1315.8504              1328.2095
 Red. masses --      1.4992                 3.0118                 1.0844
 Frc consts  --      1.5137                 3.0725                 1.1272
 IR Inten    --    275.1038               313.7576                 0.2696

                     79                     80                     81
                      A                      A                      A
 Frequencies --   1338.8039              1341.2197              1370.1821
 Red. masses --      1.7993                 2.0010                 2.9154
 Frc consts  --      1.9002                 2.1208                 3.2249
 IR Inten    --    157.2950               160.7556               596.2319

                     82                     83                     84
                      A                      A                      A
 Frequencies --   1414.6080              1423.1710              1426.8413
 Red. masses --      4.6654                 1.4542                 1.3188
 Frc consts  --      5.5006                 1.7354                 1.5820
 IR Inten    --    563.5180                65.6729                28.6295

                     85                     86                     87
                      A                      A                      A
 Frequencies --   1434.0917              1452.1886              1475.6050
 Red. masses --      1.5035                 7.3559                 2.3071
 Frc consts  --      1.8219                 9.1398                 2.9597
 IR Inten    --     23.0197               724.6242               295.7531

                     88                     89                     90
                      A                      A                      A
 Frequencies --   1489.2732              1494.7532              1509.6192
 Red. masses --      1.5226                 5.6420                 1.0606
 Frc consts  --      1.9897                 7.4272                 1.4241
 IR Inten    --     92.0632               126.7222                 8.3980

                     91                     92                     93
                      A                      A                      A
 Frequencies --   1511.8057              1519.1140              1522.0888
 Red. masses --      1.0402                 1.0397                 1.1130
 Frc consts  --      1.4008                 1.4137                 1.5192
 IR Inten    --      7.1742                 8.8578                73.0543

                     94                     95                     96
                      A                      A                      A
 Frequencies --   1523.3908              1535.7716              1559.0610
 Red. masses --      1.0786                 1.0885                 2.9924
 Frc consts  --      1.4749                 1.5126                 4.2854
 IR Inten    --      2.3691                10.8110               170.5635

                     97                     98                     99
                      A                      A                      A
 Frequencies --   1619.7311              1634.6354              1670.0354
 Red. masses --      3.3819                 3.0864                 6.6350
 Frc consts  --      5.2276                 4.8590                10.9029
 IR Inten    --     95.4298               262.2433              1141.9614

                    100                    101                    102
                      A                      A                      A
 Frequencies --   1678.1539              1692.7222              1714.1459
 Red. masses --      2.8236                 5.9746                 3.2842
 Frc consts  --      4.6851                10.0863                 5.6856
 IR Inten    --    133.2100               412.9451               524.4180

                    103                    104                    105
                      A                      A                      A
 Frequencies --   1791.5044              2980.1760              3047.4904
 Red. masses --      3.0271                 1.1010                 1.0584
 Frc consts  --      5.7241                 5.7612                 5.7912
 IR Inten    --    494.6268              1601.8529               108.8422

                    106                    107                    108
                      A                      A                      A
 Frequencies --   3069.4782              3074.4495              3075.3795
 Red. masses --      1.0368                 1.0448                 1.1053
 Frc consts  --      5.7555                 5.8184                 6.1594
 IR Inten    --     49.0098                62.0169                27.8744

                    109                    110                    111
                      A                      A                      A
 Frequencies --   3080.3123              3083.0852              3113.2823
 Red. masses --      1.0554                 1.0604                 1.1013
 Frc consts  --      5.9003                 5.9384                 6.2892
 IR Inten    --     18.5924                25.0520                13.1655

                    112                    113                    114
                      A                      A                      A
 Frequencies --   3117.9336              3141.0909              3142.4947
 Red. masses --      1.1036                 1.1038                 1.0987
 Frc consts  --      6.3210                 6.4165                 6.3929
 IR Inten    --      2.6461                74.4558                57.8707

                    115                    116                    117
                      A                      A                      A
 Frequencies --   3145.6602              3161.4176              3169.3101
 Red. masses --      1.1013                 1.1027                 1.0930
 Frc consts  --      6.4209                 6.4937                 6.4686
 IR Inten    --     26.1792                43.1259              1802.0264

                    118                    119                    120
                      A                      A                      A
 Frequencies --   3232.5926              3265.5681              3304.5644
 Red. masses --      1.0930                 1.0935                 1.0914
 Frc consts  --      6.7295                 6.8706                 7.0218
 IR Inten    --     35.9169                 1.6285                31.2422

 - Thermochemistry -
 -------------------
 Temperature   298.150 Kelvin.  Pressure   1.00000 Atm.
 Atom     1 has atomic number  6 and mass  12.00000

 Molecular mass:   364.11203 amu.
 Principal axes and moments of inertia in atomic units:
                           1         2         3
     Eigenvalues --  6179.26377********************
           X            0.99988   0.01560  -0.00051
           Y           -0.01560   0.99988   0.00193
           Z            0.00054  -0.00192   1.00000
 This molecule is an asymmetric top.
 Rotational symmetry number  1.
 Warning -- assumption of classical behavior for rotation
           may cause significant error
 Rotational temperatures (Kelvin)      0.01402     0.00494     0.00372
 Rotational constants (GHZ):           0.29206     0.10283     0.07751
 Zero-point vibrational energy     840370.2 (Joules/Mol)
                                  200.85330 (Kcal/Mol)
 Warning -- explicit consideration of  38 degrees of freedom as
           vibrations may cause significant error
 Vibrational temperatures:     20.73    29.51    39.69    60.74    71.98
          (Kelvin)             75.56    80.97    91.16   102.54   121.23
                              127.39   137.79   155.75   174.97   185.53
                              222.40   262.45   265.78   278.98   325.33
                              328.13   343.97   364.38   394.61   427.17
                              444.54   480.79   492.32   543.94   589.87
                              593.34   666.53   745.23   752.67   766.92
                              805.80   844.93   888.29   950.13   955.98
                              961.37   996.88  1036.57  1091.49  1106.95
                             1114.85  1125.27  1139.28  1174.69  1191.27
                             1259.79  1265.94  1284.87  1299.16  1332.33
                             1356.59  1381.72  1415.28  1464.80  1477.52
                             1510.39  1532.87  1560.02  1597.18  1603.32
                             1662.96  1679.31  1698.52  1708.29  1726.33
                             1745.86  1768.26  1829.44  1855.66  1866.11
                             1883.47  1893.21  1910.99  1926.24  1929.71
                             1971.38  2035.30  2047.62  2052.90  2063.34
                             2089.37  2123.06  2142.73  2150.61  2172.00
                             2175.15  2185.66  2189.94  2191.82  2209.63
                             2243.14  2330.43  2351.87  2402.81  2414.49
                             2435.45  2466.27  2577.57  4287.80  4384.65
                             4416.29  4423.44  4424.78  4431.88  4435.87
                             4479.31  4486.01  4519.32  4521.34  4525.90
                             4548.57  4559.92  4650.97  4698.42  4754.53

 Zero-point correction=                           0.320080 (Hartree/Particle)
 Thermal correction to Energy=                    0.345733
 Thermal correction to Enthalpy=                  0.346678
 Thermal correction to Gibbs Free Energy=         0.259455
 Sum of electronic and zero-point Energies=          -1382.926902
 Sum of electronic and thermal Energies=             -1382.901249
 Sum of electronic and thermal Enthalpies=           -1382.900305
 Sum of electronic and thermal Free Energies=        -1382.987527

                     E (Thermal)             CV                S
                      KCal/Mol        Cal/Mol-Kelvin    Cal/Mol-Kelvin
 Total                  216.951             90.002            183.575
 Electronic               0.000              0.000              0.000
 Translational            0.889              2.981             43.570
 Rotational               0.889              2.981             36.177
 Vibrational            215.173             84.040            103.827
 Vibration     1          0.593              1.986              7.286
 Vibration     2          0.593              1.986              6.584
 Vibration     3          0.593              1.984              5.996
 Vibration     4          0.595              1.980              5.152
 Vibration     5          0.595              1.978              4.816
 Vibration     6          0.596              1.977              4.720
 Vibration     7          0.596              1.975              4.584
 Vibration     8          0.597              1.972              4.350
 Vibration     9          0.598              1.968              4.118
 Vibration    10          0.601              1.960              3.789
 Vibration    11          0.601              1.957              3.692
 Vibration    12          0.603              1.952              3.539
 Vibration    13          0.606              1.943              3.300
 Vibration    14          0.609              1.931              3.075
 Vibration    15          0.611              1.924              2.962
 Vibration    16          0.620              1.898              2.615
 Vibration    17          0.630              1.864              2.304
 Vibration    18          0.631              1.861              2.280
 Vibration    19          0.635              1.848              2.190
 Vibration    20          0.650              1.801              1.910
 Vibration    21          0.651              1.798              1.894
 Vibration    22          0.657              1.781              1.810
 Vibration    23          0.664              1.757              1.708
 Vibration    24          0.677              1.721              1.569
 Vibration    25          0.691              1.680              1.434
 Vibration    26          0.698              1.657              1.368
 Vibration    27          0.716              1.607              1.240
 Vibration    28          0.721              1.591              1.202
 Vibration    29          0.748              1.517              1.047
 Vibration    30          0.774              1.449              0.927
 Vibration    31          0.776              1.443              0.918
 Vibration    32          0.821              1.332              0.757
 Vibration    33          0.873              1.210              0.615
 Vibration    34          0.878              1.199              0.603
 Vibration    35          0.888              1.177              0.580
 Vibration    36          0.916              1.118              0.524
 Vibration    37          0.944              1.059              0.472
 Vibration    38          0.977              0.995              0.421

 Normal termination of Gaussian 09 at Tue Feb 19 15:14:21 2019.
