 Gaussian 09, Revision E.01,

 ----------------------------------------------------------------------
 # M062X/Gen 6D SCF=Tight INT(grid=ultrafine) OPT IOP(2/17=4) SCRF=(SMD
 ,Solvent=h2o) maxdisk=2147483648
 ----------------------------------------------------------------------

 ------------------------------
 3Nitro.M062X_6-31pGd_opt_water
 ------------------------------
 Symbolic Z-matrix:
 Charge =  0 Multiplicity = 1

 SCF Done:  E(RM062X) =  -778.425406435     A.U. after   19 cycles
 SCF Done:  E(RM062X) =  -778.463241994     A.U. after   16 cycles
 SCF Done:  E(RM062X) =  -778.467963416     A.U. after   16 cycles
 SCF Done:  E(RM062X) =  -778.469551875     A.U. after   15 cycles
 SCF Done:  E(RM062X) =  -778.468416346     A.U. after   17 cycles
 SCF Done:  E(RM062X) =  -778.469803291     A.U. after   13 cycles
 SCF Done:  E(RM062X) =  -778.470222508     A.U. after   16 cycles
 SCF Done:  E(RM062X) =  -778.470551818     A.U. after   15 cycles
 SCF Done:  E(RM062X) =  -778.470657853     A.U. after   14 cycles
 SCF Done:  E(RM062X) =  -778.470687814     A.U. after   14 cycles
 SCF Done:  E(RM062X) =  -778.470697619     A.U. after   11 cycles
 SCF Done:  E(RM062X) =  -778.470698172     A.U. after   12 cycles
 SCF Done:  E(RM062X) =  -778.470698837     A.U. after   13 cycles
 SCF Done:  E(RM062X) =  -778.470700055     A.U. after   12 cycles
 SCF Done:  E(RM062X) =  -778.470700082     A.U. after   12 cycles
 SCF Done:  E(RM062X) =  -778.470700197     A.U. after   10 cycles
 SCF Done:  E(RM062X) =  -778.470700320     A.U. after   11 cycles
 SCF Done:  E(RM062X) =  -778.470700317     A.U. after   11 cycles
 Optimization completed.
    -- Stationary point found.
 Normal termination of Gaussian 09 at Tue Feb  5 11:14:56 2019.
 Gaussian 09:  ES64L-G09RevE.01 30-Nov-2015

 ----------------------------------------------------------------------
 # M062X/Gen 6D SCF=Tight INT(grid=ultrafine) OPT IOP(2/17=4) SCRF=(SMD
 ,Solvent=h2o) Freq=Noraman maxdisk=2147483648 geom=check guess=read IO
 P(2/17=4)
 ----------------------------------------------------------------------

 ------------------------------
 3Nitro.M062X_6-31pGd_opt_water
 ------------------------------
 Structure from the checkpoint file:  "3Nitro.M062X_6-31pGd_opt_water.chk"
 Charge =  0 Multiplicity = 1

 SCF Done:  E(RM062X) =  -778.470700317     A.U. after    1 cycles
 Optimization completed.
    -- Stationary point found.
 Normal termination of Gaussian 09 at Tue Feb  5 11:15:47 2019.

 ----------------------------------------------------------------------
 #N Geom=AllCheck Guess=TCheck SCRF=Check Test GenChk RM062X/ChkBas Fre
 q
 ----------------------------------------------------------------------

 Structure from the checkpoint file:  "3Nitro.M062X_6-31pGd_opt_water.chk"
 ------------------------------
 3Nitro.M062X_6-31pGd_opt_water
 ------------------------------
 Charge =  0 Multiplicity = 1

                         Standard orientation:
 ---------------------------------------------------------------------
 Center     Atomic      Atomic             Coordinates (Angstroms)
 Number     Number       Type             X           Y           Z
 ---------------------------------------------------------------------
      1          6           0        6.384763   -0.777975   -0.104778
      2          6           0        5.231782    0.193225    0.126726
      3          6           0        3.888749   -0.492347   -0.074469
      4          7           0        2.801164    0.453665    0.144088
      5          6           0        1.511695    0.081880    0.000145
      6          8           0        1.182630   -1.090810   -0.236206
      7          7           0        0.595217    1.104731    0.144989
      8          6           0       -0.796451    1.022854    0.053215
      9          6           0       -1.507142   -0.180259    0.087197
     10          6           0       -1.504760    2.233150   -0.047090
     11          6           0       -2.891418    2.248733   -0.119768
     12          6           0       -3.618986    1.060753   -0.099423
     13          6           0       -2.894247   -0.117917    0.003621
     14          1           0        7.349303   -0.283238    0.042453
     15          1           0        6.362057   -1.176558   -1.124984
     16          1           0        5.311436    1.040883   -0.565120
     17          1           0        5.281098    0.599312    1.144345
     18          1           0        3.784309   -1.329033    0.625324
     19          1           0        3.822604   -0.901422   -1.090118
     20          1           0        3.033152    1.431978    0.278044
     21          1           0       -1.004679   -1.130810    0.181414
     22          1           0       -0.951203    3.168415   -0.068346
     23          1           0       -3.412181    3.197199   -0.198801
     24          7           0       -3.631768   -1.385953    0.035819
     25          1           0       -4.699869    1.052659   -0.163305
     26          8           0       -2.997770   -2.429719    0.080422
     27          8           0       -4.853575   -1.345801    0.017086
     28          1           0        6.329691   -1.623690    0.589445
     29          1           0        0.967796    2.045281    0.232692
 ---------------------------------------------------------------------

 SCF Done:  E(RM062X) =  -778.470700317     A.U. after    1 cycles

 The electronic state is 1-A.
 Alpha  occ. eigenvalues --  -19.70184 -19.70151 -19.62540 -15.03223 -14.80666
 Alpha  occ. eigenvalues --  -14.78832 -10.69608 -10.62279 -10.62153 -10.57733
 Alpha  occ. eigenvalues --  -10.57542 -10.57454 -10.57294 -10.57123 -10.54208
 Alpha  occ. eigenvalues --  -10.52967  -1.38646  -1.19837  -1.18547  -1.06737
 Alpha  occ. eigenvalues --   -1.03475  -0.99122  -0.91216  -0.88361  -0.85915
 Alpha  occ. eigenvalues --   -0.80624  -0.78028  -0.72773  -0.69950  -0.68554
 Alpha  occ. eigenvalues --   -0.67665  -0.66146  -0.64040  -0.63417  -0.61984
 Alpha  occ. eigenvalues --   -0.58339  -0.58068  -0.55964  -0.54076  -0.53236
 Alpha  occ. eigenvalues --   -0.52356  -0.51800  -0.50520  -0.47495  -0.46648
 Alpha  occ. eigenvalues --   -0.45369  -0.45160  -0.44130  -0.42019  -0.41030
 Alpha  occ. eigenvalues --   -0.40118  -0.39929  -0.39892  -0.39596  -0.38826
 Alpha  occ. eigenvalues --   -0.36168  -0.33301  -0.32975  -0.28237
 Alpha virt. eigenvalues --   -0.06775   0.00735   0.01527   0.02921   0.03176
 Alpha virt. eigenvalues --    0.03522   0.04107   0.04459   0.04591   0.05423
 Alpha virt. eigenvalues --    0.06129   0.06498   0.06869   0.07796   0.08144

 Mulliken charges:
               1
     1  C   -0.744641
     2  C   -0.374975
     3  C   -0.172924
     4  N   -0.681248
     5  C    0.816123
     6  O   -0.752017
     7  N   -0.669128
     8  C    0.375231
     9  C    0.606281
    10  C   -0.939509
    11  C   -0.376630
    12  C    0.109577
    13  C   -0.478206
    14  H    0.223722
    15  H    0.222525
    16  H    0.233576
    17  H    0.235340
    18  H    0.238654
    19  H    0.236863
    20  H    0.483864
    21  H    0.302521
    22  H    0.268512
    23  H    0.267031
    24  N   -0.210694
    25  H    0.283295
    26  O   -0.109294
    27  O   -0.114802
    28  H    0.222234
    29  H    0.498719
 Sum of Mulliken charges =   0.00000

 Dipole moment (field-independent basis, Debye):
    X=              7.3785    Y=             11.6558    Z=              0.7228  Tot=             13.8139
 Quadrupole moment (field-independent basis, Debye-Ang):
   XX=            -91.5830   YY=            -91.7593   ZZ=            -97.0010
   XY=            -11.2634   XZ=              2.2118   YZ=             -0.4687

  Exact polarizability: 284.035  -1.856 243.398   4.844  -0.580 130.126
 Approx polarizability: 227.980  -3.122 206.841   4.689  -0.437 115.350

                      1                      2                      3
                      A                      A                      A
 Frequencies --     16.4000                21.1580                32.6538
 Red. masses --      4.7268                 6.5000                 8.6543
 Frc consts  --      0.0007                 0.0017                 0.0054
 IR Inten    --     18.6110                17.0587                 2.2422

                      4                      5                      6
                      A                      A                      A
 Frequencies --     54.5448                60.5100                71.1146
 Red. masses --      1.6555                 4.8376                 4.6468
 Frc consts  --      0.0029                 0.0104                 0.0138
 IR Inten    --     17.6507                 0.3646                 0.3198

                      7                      8                      9
                      A                      A                      A
 Frequencies --    137.4364               147.9247               170.3364
 Red. masses --      4.8138                 3.0569                 5.3258
 Frc consts  --      0.0536                 0.0394                 0.0910
 IR Inten    --      4.6809                14.5795                 0.5030

                     10                     11                     12
                      A                      A                      A
 Frequencies --    236.6176               246.1622               252.5000
 Red. masses --      4.2311                 1.1312                 4.4594
 Frc consts  --      0.1396                 0.0404                 0.1675
 IR Inten    --      3.6754                 1.1566                 9.7260

                     13                     14                     15
                      A                      A                      A
 Frequencies --    256.5434               295.2093               348.2627
 Red. masses --      6.0615                 1.1659                 4.2785
 Frc consts  --      0.2350                 0.0599                 0.3057
 IR Inten    --      2.7806                60.0596                20.9870

                     16                     17                     18
                      A                      A                      A
 Frequencies --    370.8700               410.6457               430.1900
 Red. masses --      7.0852                 7.5516                 3.1939
 Frc consts  --      0.5742                 0.7503                 0.3483
 IR Inten    --      7.0008                 1.3040                 3.3156

                     19                     20                     21
                      A                      A                      A
 Frequencies --    457.6880               512.2638               546.8753
 Red. masses --      4.3309                 1.1751                 5.3591
 Frc consts  --      0.5345                 0.1817                 0.9443
 IR Inten    --      5.6857               278.3370                 5.5069

                     22                     23                     24
                      A                      A                      A
 Frequencies --    552.8187               625.5852               675.5760
 Red. masses --      6.5608                 5.7870                 2.2587
 Frc consts  --      1.1813                 1.3344                 0.6074
 IR Inten    --      2.9357                10.6958                39.8512

                     25                     26                     27
                      A                      A                      A
 Frequencies --    701.2635               758.8414               761.8298
 Red. masses --      7.1824                 1.7379                 3.5971
 Frc consts  --      2.0810                 0.5896                 1.2300
 IR Inten    --     35.6151                23.3712                87.7951

                     28                     29                     30
                      A                      A                      A
 Frequencies --    769.0679               784.4937               820.1256
 Red. masses --      2.0891                 6.7937                 1.7431
 Frc consts  --      0.7280                 2.4634                 0.6908
 IR Inten    --      4.2051                 4.9144                28.0584

                     31                     32                     33
                      A                      A                      A
 Frequencies --    851.1127               906.8921               907.4365
 Red. masses --      9.6203                 1.4031                 1.2894
 Frc consts  --      4.1059                 0.6799                 0.6256
 IR Inten    --     61.8857                18.8864                28.1345

                     34                     35                     36
                      A                      A                      A
 Frequencies --    931.4356               944.0220               982.4000
 Red. masses --      1.6795                 1.4084                 4.1740
 Frc consts  --      0.8585                 0.7395                 2.3734
 IR Inten    --     10.7302                 0.6465                17.5604

                     37                     38                     39
                      A                      A                      A
 Frequencies --   1015.5379              1020.5091              1049.8051
 Red. masses --      5.9876                 1.3351                 4.1995
 Frc consts  --      3.6383                 0.8192                 2.7269
 IR Inten    --      2.9970                 0.3850                 9.5837

                     40                     41                     42
                      A                      A                      A
 Frequencies --   1083.8982              1118.0924              1134.5407
 Red. masses --      2.4147                 1.5808                 1.8219
 Frc consts  --      1.6714                 1.1644                 1.3817
 IR Inten    --      4.6677                90.4264                10.2344

                     43                     44                     45
                      A                      A                      A
 Frequencies --   1157.9040              1175.4440              1182.3316
 Red. masses --      2.3097                 3.0263                 1.6387
 Frc consts  --      1.8245                 2.4636                 1.3497
 IR Inten    --      5.0889                 4.4605                 1.9883

                     46                     47                     48
                      A                      A                      A
 Frequencies --   1202.4568              1272.8259              1281.2149
 Red. masses --      1.2784                 1.6163                 1.2164
 Frc consts  --      1.0891                 1.5428                 1.1764
 IR Inten    --      7.0370               431.1966                40.4943

                     49                     50                     51
                      A                      A                      A
 Frequencies --   1302.7040              1319.5095              1329.0044
 Red. masses --      1.9426                 1.8823                 1.0748
 Frc consts  --      1.9424                 1.9309                 1.1185
 IR Inten    --     87.2113                67.4722                 2.0108

                     52                     53                     54
                      A                      A                      A
 Frequencies --   1350.9294              1386.2243              1420.5368
 Red. masses --      1.4889                 4.7598                 1.2797
 Frc consts  --      1.6010                 5.3890                 1.5214
 IR Inten    --     58.9108               323.5210                 7.0903

                     55                     56                     57
                      A                      A                      A
 Frequencies --   1430.2048              1450.9163              1482.6686
 Red. masses --      1.6493                13.4033                 3.0017
 Frc consts  --      1.9876                16.6245                 3.8879
 IR Inten    --     19.7429               697.0743                51.7163

                     58                     59                     60
                      A                      A                      A
 Frequencies --   1492.3322              1503.9278              1513.4960
 Red. masses --      1.0575                 1.0399                 1.0850
 Frc consts  --      1.3876                 1.3858                 1.4643
 IR Inten    --     12.6269                11.8932                14.2464

                     61                     62                     63
                      A                      A                      A
 Frequencies --   1531.7447              1536.4924              1574.5412
 Red. masses --      1.0974                 2.6731                 2.0844
 Frc consts  --      1.5170                 3.7182                 3.0446
 IR Inten    --     60.4432               132.4203               748.3083

                     64                     65                     66
                      A                      A                      A
 Frequencies --   1589.2330              1612.7689              1674.0766
 Red. masses --      2.4904                 9.8541                 5.6357
 Frc consts  --      3.7060                15.1012                 9.3058
 IR Inten    --   1123.7438              1045.1250                56.3692

                     67                     68                     69
                      A                      A                      A
 Frequencies --   1694.7325              1714.4071              3072.7620
 Red. masses --      4.6005                 4.5071                 1.0600
 Frc consts  --      7.7851                 7.8050                 5.8968
 IR Inten    --    296.4531               424.1751                 6.3684

                     70                     71                     72
                      A                      A                      A
 Frequencies --   3077.8408              3079.7504              3106.5823
 Red. masses --      1.0398                 1.0560                 1.1026
 Frc consts  --      5.8035                 5.9011                 6.2695
 IR Inten    --     12.1782               121.6415                 1.8875

                     73                     74                     75
                      A                      A                      A
 Frequencies --   3126.1936              3148.0523              3157.8599
 Red. masses --      1.1070                 1.1040                 1.1023
 Frc consts  --      6.3740                 6.4461                 6.4761
 IR Inten    --     54.4792                92.9781                47.4368

                     76                     77                     78
                      A                      A                      A
 Frequencies --   3226.1749              3253.1748              3282.2638
 Red. masses --      1.0918                 1.0938                 1.0949
 Frc consts  --      6.6955                 6.8201                 6.9498
 IR Inten    --      3.6637                 4.3894                 8.5516

                     79                     80                     81
                      A                      A                      A
 Frequencies --   3316.3253              3593.7695              3621.0770
 Red. masses --      1.0924                 1.0790                 1.0795
 Frc consts  --      7.0788                 8.2106                 8.3396
 IR Inten    --     43.9557                17.7235               275.1969

 - Thermochemistry -
 -------------------
 Temperature   298.150 Kelvin.  Pressure   1.00000 Atm.
 Atom     1 has atomic number  6 and mass  12.00000

 Molecular mass:   223.09569 amu.
 Principal axes and moments of inertia in atomic units:
                           1         2         3
     Eigenvalues --  1397.683199141.41597**********
           X            0.99990  -0.01379   0.00019
           Y            0.01379   0.99990   0.00063
           Z           -0.00020  -0.00063   1.00000
 This molecule is an asymmetric top.
 Rotational symmetry number  1.
 Warning -- assumption of classical behavior for rotation
           may cause significant error
 Rotational temperatures (Kelvin)      0.06197     0.00947     0.00826
 Rotational constants (GHZ):           1.29124     0.19742     0.17212
 Zero-point vibrational energy     614376.0 (Joules/Mol)
                                  146.83939 (Kcal/Mol)
 Warning -- explicit consideration of  22 degrees of freedom as
           vibrations may cause significant error
 Vibrational temperatures:     23.60    30.44    46.98    78.48    87.06
          (Kelvin)            102.32   197.74   212.83   245.08   340.44
                              354.17   363.29   369.11   424.74   501.07
                              533.60   590.83   618.95   658.51   737.03
                              786.83   795.38   900.08   972.00  1008.96
                             1091.80  1096.10  1106.52  1128.71  1179.98
                             1224.56  1304.81  1305.60  1340.13  1358.24
                             1413.45  1461.13  1468.28  1510.43  1559.49
                             1608.68  1632.35  1665.96  1691.20  1701.11
                             1730.07  1831.31  1843.38  1874.30  1898.48
                             1912.14  1943.68  1994.47  2043.83  2057.74
                             2087.54  2133.23  2147.13  2163.81  2177.58
                             2203.84  2210.67  2265.41  2286.55  2320.41
                             2408.62  2438.34  2466.65  4421.01  4428.32
                             4431.07  4469.67  4497.89  4529.34  4543.45
                             4641.74  4680.59  4722.44  4771.45  5170.63
                             5209.92

 Zero-point correction=                           0.234003 (Hartree/Particle)
 Thermal correction to Energy=                    0.249871
 Thermal correction to Enthalpy=                  0.250815
 Thermal correction to Gibbs Free Energy=         0.186857
 Sum of electronic and zero-point Energies=           -778.236697
 Sum of electronic and thermal Energies=              -778.220829
 Sum of electronic and thermal Enthalpies=            -778.219885
 Sum of electronic and thermal Free Energies=         -778.283844

                     E (Thermal)             CV                S
                      KCal/Mol        Cal/Mol-Kelvin    Cal/Mol-Kelvin
 Total                  156.797             56.750            134.612
 Electronic               0.000              0.000              0.000
 Translational            0.889              2.981             42.110
 Rotational               0.889              2.981             33.260
 Vibrational            155.019             50.789             59.242
 Vibration     1          0.593              1.986              7.028
 Vibration     2          0.593              1.985              6.522
 Vibration     3          0.594              1.983              5.661
 Vibration     4          0.596              1.976              4.645
 Vibration     5          0.597              1.973              4.440
 Vibration     6          0.598              1.968              4.122
 Vibration     7          0.614              1.916              2.839
 Vibration     8          0.617              1.905              2.699
 Vibration     9          0.625              1.879              2.432
 Vibration    10          0.656              1.785              1.828
 Vibration    11          0.661              1.769              1.758
 Vibration    12          0.664              1.759              1.713
 Vibration    13          0.666              1.752              1.685
 Vibration    14          0.689              1.683              1.444
 Vibration    15          0.726              1.579              1.174
 Vibration    16          0.743              1.532              1.076
 Vibration    17          0.775              1.447              0.924
 Vibration    18          0.791              1.404              0.858
 Vibration    19          0.816              1.344              0.773
 Vibration    20          0.867              1.223              0.628
 Vibration    21          0.902              1.147              0.551
 Vibration    22          0.908              1.134              0.538

 Optimization completed on the basis of negligible forces.
    -- Stationary point found.
 Normal termination of Gaussian 09 at Tue Feb  5 11:51:02 2019.
