 Gaussian 09, Revision E.01,

 ----------------------------------------------------------------------
 # M062X/Gen 6D SCF=Tight INT(grid=ultrafine) OPT IOP(2/17=4) maxdisk=2
 147483648
 ----------------------------------------------------------------------

 -----------------------------------
 4SulfOxyMethyl_a1.M062X_6-31pGd_opt
 -----------------------------------
 Symbolic Z-matrix:
 Charge = -1 Multiplicity = 1

 SCF Done:  E(RM062X) =  -1161.25714762     A.U. after   17 cycles
 SCF Done:  E(RM062X) =  -1161.26103516     A.U. after   16 cycles
 SCF Done:  E(RM062X) =  -1161.26182792     A.U. after   15 cycles
 SCF Done:  E(RM062X) =  -1161.26262490     A.U. after   14 cycles
 SCF Done:  E(RM062X) =  -1161.26283844     A.U. after   14 cycles
 SCF Done:  E(RM062X) =  -1161.26284858     A.U. after   16 cycles
 SCF Done:  E(RM062X) =  -1161.26313347     A.U. after   15 cycles
 SCF Done:  E(RM062X) =  -1161.26319749     A.U. after   14 cycles
 SCF Done:  E(RM062X) =  -1161.26328143     A.U. after   15 cycles
 SCF Done:  E(RM062X) =  -1161.26333027     A.U. after   14 cycles
 SCF Done:  E(RM062X) =  -1161.26340573     A.U. after   16 cycles
 SCF Done:  E(RM062X) =  -1161.26333089     A.U. after   12 cycles
 SCF Done:  E(RM062X) =  -1161.26333633     A.U. after   12 cycles
 SCF Done:  E(RM062X) =  -1161.26333898     A.U. after   11 cycles
 SCF Done:  E(RM062X) =  -1161.26334051     A.U. after   12 cycles
 SCF Done:  E(RM062X) =  -1161.26334097     A.U. after   10 cycles
 SCF Done:  E(RM062X) =  -1161.26334115     A.U. after   10 cycles
 SCF Done:  E(RM062X) =  -1161.26334116     A.U. after    9 cycles
 Optimization completed.
    -- Stationary point found.
 Normal termination of Gaussian 09 at Wed Oct 31 13:26:26 2018.
 Gaussian 09:  ES64L-G09RevE.01 30-Nov-2015

 ----------------------------------------------------------------------
 # M062X/Gen 6D SCF=Tight INT(grid=ultrafine) OPT IOP(2/17=4) Freq=Nora
 man maxdisk=2147483648 geom=check guess=read IOP(2/17=4)
 ----------------------------------------------------------------------

 -----------------------------------
 4SulfOxyMethyl_a1.M062X_6-31pGd_opt
 -----------------------------------
 Structure from the checkpoint file:  "4SulfOxyMethyl_a1.M062X_6-31pGd_opt.chk"
 Charge = -1 Multiplicity = 1

 SCF Done:  E(RM062X) =  -1161.26334116     A.U. after    2 cycles
 Optimization completed.
    -- Stationary point found.
 Normal termination of Gaussian 09 at Wed Oct 31 13:27:39 2018.

 ----------------------------------------------------------------------
 #N Geom=AllCheck Guess=TCheck SCRF=Check Test GenChk RM062X/ChkBas Fre
 q
 ----------------------------------------------------------------------

 Structure from the checkpoint file:  "4SulfOxyMethyl_a1.M062X_6-31pGd_opt.chk"
 -----------------------------------
 4SulfOxyMethyl_a1.M062X_6-31pGd_opt
 -----------------------------------
 Charge = -1 Multiplicity = 1

                         Standard orientation:
 ---------------------------------------------------------------------
 Center     Atomic      Atomic             Coordinates (Angstroms)
 Number     Number       Type             X           Y           Z
 ---------------------------------------------------------------------
      1          6           0       -7.479053   -0.457175    0.097641
      2          6           0       -6.206130    0.280959    0.508084
      3          6           0       -4.997993   -0.154930   -0.319039
      4          7           0       -3.802254    0.556688    0.057539
      5          6           0       -2.540333   -0.057262   -0.050231
      6          8           0       -2.480357   -1.297495   -0.093041
      7          7           0       -1.555193    0.873698   -0.067885
      8          6           0       -0.250963    0.520898   -0.111850
      9          6           0        0.307596   -0.798203   -0.156632
     10          6           0        0.688659    1.600765   -0.117653
     11          6           0        2.051915    1.402889   -0.147262
     12          6           0        2.559930    0.094433   -0.186788
     13          6           0        1.677705   -0.993668   -0.187958
     14          1           0       -8.340891   -0.144840    0.697250
     15          1           0       -7.357297   -1.539536    0.221396
     16          1           0       -7.718713   -0.271230   -0.956155
     17          1           0       -5.982364    0.103631    1.566605
     18          1           0       -6.354638    1.364370    0.396810
     19          1           0       -5.231872   -0.032350   -1.393209
     20          1           0       -4.790093   -1.216931   -0.158459
     21          1           0       -3.763362    1.546858   -0.149118
     22          1           0       -0.365483   -1.644341   -0.169898
     23          1           0        0.277023    2.606029   -0.099417
     24          1           0        2.739918    2.244751   -0.159215
     25         16           0        4.280801   -0.174138   -0.081213
     26          8           0        5.000007    1.023320   -0.541860
     27          8           0        4.621666   -1.486974   -0.648170
     28          1           0        2.082836   -2.002347   -0.232475
     29          6           0        4.622569   -0.301036    1.679965
     30          1           0        4.325978    0.633745    2.158436
     31          1           0        5.697563   -0.468318    1.781729
     32          1           0        4.056752   -1.142805    2.082463
 ---------------------------------------------------------------------

 SCF Done:  E(RM062X) =  -1161.26334116     A.U. after    1 cycles

 The electronic state is 1-A.
 Alpha  occ. eigenvalues --  -90.02712 -19.52183 -19.52149 -19.45950 -14.63663
 Alpha  occ. eigenvalues --  -14.57993 -10.51761 -10.48004 -10.46373 -10.46130
 Alpha  occ. eigenvalues --  -10.45865 -10.45277 -10.44835 -10.44458 -10.44329
 Alpha  occ. eigenvalues --  -10.42074 -10.41336  -8.34048  -6.26230  -6.26166
 Alpha  occ. eigenvalues --   -6.26098  -1.10922  -1.01071  -1.00193  -0.88995
 Alpha  occ. eigenvalues --   -0.86685  -0.82494  -0.78314  -0.76555  -0.72283
 Alpha  occ. eigenvalues --   -0.71249  -0.66901  -0.61690  -0.58027  -0.56997
 Alpha  occ. eigenvalues --   -0.54379  -0.51306  -0.48749  -0.47139  -0.44911
 Alpha  occ. eigenvalues --   -0.44186  -0.43737  -0.42532  -0.40673  -0.40138
 Alpha  occ. eigenvalues --   -0.39643  -0.39048  -0.38034  -0.37520  -0.36629
 Alpha  occ. eigenvalues --   -0.35620  -0.34370  -0.34142  -0.32538  -0.32026
 Alpha  occ. eigenvalues --   -0.30303  -0.29742  -0.28562  -0.28178  -0.27595
 Alpha  occ. eigenvalues --   -0.25899  -0.24169  -0.22757  -0.21515  -0.18985
 Alpha  occ. eigenvalues --   -0.17954  -0.16149  -0.10783
 Alpha virt. eigenvalues --    0.09824   0.10085   0.11247   0.11766   0.12470
 Alpha virt. eigenvalues --    0.12917   0.13430   0.13712   0.14044   0.14377
 Alpha virt. eigenvalues --    0.14785   0.15455   0.15815   0.16121   0.16276

 Mulliken charges:
               1
     1  C   -0.736936
     2  C   -0.233544
     3  C   -0.259834
     4  N   -0.532459
     5  C    0.619050
     6  O   -0.653693
     7  N   -0.487032
     8  C   -0.078312
     9  C    0.138954
    10  C   -1.029797
    11  C    0.033721
    12  C   -0.901450
    13  C    0.053990
    14  H    0.191249
    15  H    0.207153
    16  H    0.199860
    17  H    0.217435
    18  H    0.190216
    19  H    0.173191
    20  H    0.252145
    21  H    0.393127
    22  H    0.258565
    23  H    0.189920
    24  H    0.219874
    25  S    1.343621
    26  O   -0.535762
    27  O   -0.517140
    28  H    0.219762
    29  C   -0.696076
    30  H    0.254035
    31  H    0.249933
    32  H    0.256233
 Sum of Mulliken charges =  -1.00000

 Dipole moment (field-independent basis, Debye):
    X=             -2.7630    Y=              1.2347    Z=              3.2270  Tot=              4.4240
 Quadrupole moment (field-independent basis, Debye-Ang):
   XX=           -176.4161   YY=           -122.1965   ZZ=           -115.4065
   XY=             -4.0569   XZ=             19.2031   YZ=             -2.3867

  Exact polarizability: 321.398  -1.567 164.531   4.686   1.255 126.484
 Approx polarizability: 300.133  -2.547 227.336  -1.305   2.489 158.731

                      1                      2                      3
                      A                      A                      A
 Frequencies --     13.0897                31.6941                36.1341
 Red. masses --      3.4272                 3.5742                 5.6931
 Frc consts  --      0.0003                 0.0021                 0.0044
 IR Inten    --      0.9125                 2.8658                 4.6652

                      4                      5                      6
                      A                      A                      A
 Frequencies --     60.0801                62.2429                72.8230
 Red. masses --      3.3680                 4.6142                 2.7759
 Frc consts  --      0.0072                 0.0105                 0.0087
 IR Inten    --      1.2920                 1.4399                 2.1627

                      7                      8                      9
                      A                      A                      A
 Frequencies --    111.6980               125.7232               178.1693
 Red. masses --      4.2377                 4.8862                 3.7585
 Frc consts  --      0.0312                 0.0455                 0.0703
 IR Inten    --      0.7144                10.2674                 6.0535

                     10                     11                     12
                      A                      A                      A
 Frequencies --    197.8878               216.7395               229.1259
 Red. masses --      6.3773                 4.1675                 1.1515
 Frc consts  --      0.1471                 0.1153                 0.0356
 IR Inten    --      0.7877                 2.4930                 0.6918

                     13                     14                     15
                      A                      A                      A
 Frequencies --    235.1121               254.3333               308.9210
 Red. masses --      1.1175                 3.2644                 4.7644
 Frc consts  --      0.0364                 0.1244                 0.2679
 IR Inten    --      0.0855                 0.8017                 2.1683

                     16                     17                     18
                      A                      A                      A
 Frequencies --    330.2245               341.0248               343.2426
 Red. masses --      4.4043                 4.7505                 5.1132
 Frc consts  --      0.2830                 0.3255                 0.3549
 IR Inten    --     13.3678                 0.9751                 7.4869

                     19                     20                     21
                      A                      A                      A
 Frequencies --    382.0519               432.7023               439.2853
 Red. masses --      7.0298                 3.2618                 5.0546
 Frc consts  --      0.6046                 0.3598                 0.5747
 IR Inten    --     29.4396                 0.1183                 2.6770

                     22                     23                     24
                      A                      A                      A
 Frequencies --    483.4705               486.3401               531.5056
 Red. masses --      4.3983                 5.3741                 3.3271
 Frc consts  --      0.6057                 0.7489                 0.5538
 IR Inten    --     12.7354                20.2094                67.8950

                     25                     26                     27
                      A                      A                      A
 Frequencies --    549.4384               607.8439               634.3464
 Red. masses --      3.6679                 1.6415                 5.5043
 Frc consts  --      0.6524                 0.3573                 1.3050
 IR Inten    --    112.5031                87.5662                 8.3562

                     28                     29                     30
                      A                      A                      A
 Frequencies --    691.1818               717.0860               750.5549
 Red. masses --      4.9608                 3.3833                 1.2395
 Frc consts  --      1.3963                 1.0250                 0.4114
 IR Inten    --     28.0679                19.3402                 3.6969

                     31                     32                     33
                      A                      A                      A
 Frequencies --    772.8850               784.1639               802.1890
 Red. masses --      3.8003                 3.6743                 8.5813
 Frc consts  --      1.3375                 1.3312                 3.2536
 IR Inten    --    128.1156                47.8143                19.8372

                     34                     35                     36
                      A                      A                      A
 Frequencies --    844.2656               858.7618               872.1228
 Red. masses --      1.3120                 5.6691                 1.7909
 Frc consts  --      0.5510                 2.4633                 0.8025
 IR Inten    --      2.3101                 6.8629                49.9727

                     37                     38                     39
                      A                      A                      A
 Frequencies --    892.2731               921.5707               981.2797
 Red. masses --      1.2838                 1.6666                 1.3959
 Frc consts  --      0.6022                 0.8339                 0.7919
 IR Inten    --     23.2784                 1.2356               189.7009

                     40                     41                     42
                      A                      A                      A
 Frequencies --    983.0004               986.8781              1005.2832
 Red. masses --      1.3435                 1.2787                 1.6081
 Frc consts  --      0.7649                 0.7338                 0.9575
 IR Inten    --      3.1624                29.1581                48.5339

                     43                     44                     45
                      A                      A                      A
 Frequencies --   1005.7835              1014.5543              1070.5925
 Red. masses --      2.2267                 4.1319                 2.5992
 Frc consts  --      1.3272                 2.5058                 1.7553
 IR Inten    --    101.2695                29.1288                14.8061

                     46                     47                     48
                      A                      A                      A
 Frequencies --   1103.3120              1139.5497              1140.2303
 Red. masses --      4.4877                 1.9524                 1.5232
 Frc consts  --      3.2186                 1.4938                 1.1668
 IR Inten    --     62.0850               522.0316               383.9445

                     49                     50                     51
                      A                      A                      A
 Frequencies --   1146.4914              1162.4897              1194.4294
 Red. masses --      2.3336                 1.8175                 2.4826
 Frc consts  --      1.8073                 1.4471                 2.0868
 IR Inten    --    223.1392                33.1219                 7.9197

                     52                     53                     54
                      A                      A                      A
 Frequencies --   1208.0764              1248.1944              1278.4455
 Red. masses --      1.4778                 2.1011                 1.4776
 Frc consts  --      1.2707                 1.9287                 1.4229
 IR Inten    --     27.8995               271.7320               311.7332

                     55                     56                     57
                      A                      A                      A
 Frequencies --   1301.4499              1317.0206              1318.6454
 Red. masses --      7.3300                 1.5211                 1.2011
 Frc consts  --      7.3149                 1.5546                 1.2305
 IR Inten    --    185.4610                26.7517                57.2289

                     58                     59                     60
                      A                      A                      A
 Frequencies --   1338.7064              1342.2611              1356.9878
 Red. masses --      1.3195                 4.2198                 1.2374
 Frc consts  --      1.3933                 4.4793                 1.3425
 IR Inten    --     17.4116                16.3866                19.1370

                     61                     62                     63
                      A                      A                      A
 Frequencies --   1408.0442              1425.8339              1438.2207
 Red. masses --      1.8622                 1.3101                 2.5224
 Frc consts  --      2.1752                 1.5692                 3.0740
 IR Inten    --    336.2918                24.0723               428.3375

                     64                     65                     66
                      A                      A                      A
 Frequencies --   1476.6913              1478.1313              1490.0708
 Red. masses --      1.0544                 1.0511                 4.1884
 Frc consts  --      1.3547                 1.3530                 5.4791
 IR Inten    --      6.5505                 0.1258                91.9290

                     67                     68                     69
                      A                      A                      A
 Frequencies --   1507.5965              1511.3913              1522.5346
 Red. masses --      1.7629                 1.1206                 1.0801
 Frc consts  --      2.3608                 1.5082                 1.4751
 IR Inten    --    821.9636                88.4763                20.2002

                     70                     71                     72
                      A                      A                      A
 Frequencies --   1523.1042              1532.9608              1557.1390
 Red. masses --      1.0556                 1.0823                 3.5192
 Frc consts  --      1.4428                 1.4984                 5.0275
 IR Inten    --     19.8534                11.4009               647.6712

                     73                     74                     75
                      A                      A                      A
 Frequencies --   1595.5908              1637.8671              1713.6332
 Red. masses --      6.7106                 5.9917                 7.8861
 Frc consts  --     10.0659                 9.4701                13.6441
 IR Inten    --     85.7094               634.0041               249.4562

                     76                     77                     78
                      A                      A                      A
 Frequencies --   2969.4691              3054.4842              3064.6360
 Red. masses --      1.0736                 1.0664                 1.0356
 Frc consts  --      5.5777                 5.8620                 5.7307
 IR Inten    --    137.7070                37.9897                51.9252

                     79                     80                     81
                      A                      A                      A
 Frequencies --   3100.6501              3103.9904              3132.7544
 Red. masses --      1.0293                 1.0956                 1.0988
 Frc consts  --      5.8302                 6.2192                 6.3534
 IR Inten    --      6.2060                12.0180                40.4633

                     82                     83                     84
                      A                      A                      A
 Frequencies --   3136.0454              3142.7579              3203.9965
 Red. masses --      1.1014                 1.0917                 1.1060
 Frc consts  --      6.3823                 6.3527                 6.6897
 IR Inten    --     54.6330                32.1948                 5.5333

                     85                     86                     87
                      A                      A                      A
 Frequencies --   3211.6855              3212.6625              3215.1615
 Red. masses --      1.0892                 1.0876                 1.1074
 Frc consts  --      6.6198                 6.6139                 6.7448
 IR Inten    --      7.9570                 1.7945                 1.3651

                     88                     89                     90
                      A                      A                      A
 Frequencies --   3229.1908              3288.3804              3631.5871
 Red. masses --      1.0949                 1.0915                 1.0761
 Frc consts  --      6.7270                 6.9543                 8.3614
 IR Inten    --     15.8170                 3.6592                12.2763

 - Thermochemistry -
 -------------------
 Temperature   298.150 Kelvin.  Pressure   1.00000 Atm.
 Atom     1 has atomic number  6 and mass  12.00000

 Molecular mass:   255.08034 amu.
 Principal axes and moments of inertia in atomic units:
                           1         2         3
     Eigenvalues --   986.28222********************
           X            0.99998   0.00116   0.00579
           Y           -0.00111   0.99996  -0.00848
           Z           -0.00580   0.00847   0.99995
 This molecule is an asymmetric top.
 Rotational symmetry number  1.
 Warning -- assumption of classical behavior for rotation
           may cause significant error
 Rotational temperatures (Kelvin)      0.08782     0.00595     0.00576
 Rotational constants (GHZ):           1.82984     0.12408     0.12007
 Zero-point vibrational energy     674467.9 (Joules/Mol)
                                  161.20170 (Kcal/Mol)
 Warning -- explicit consideration of  26 degrees of freedom as
           vibrations may cause significant error
 Vibrational temperatures:     18.83    45.60    51.99    86.44    89.55
          (Kelvin)            104.78   160.71   180.89   256.35   284.72
                              311.84   329.66   338.27   365.93   444.47
                              475.12   490.66   493.85   549.69   622.56
                              632.03   695.61   699.73   764.72   790.52
                              874.55   912.68   994.46  1031.73  1079.88
                             1112.01  1128.24  1154.17  1214.71  1235.57
                             1254.79  1283.78  1325.93  1411.84  1414.32
                             1419.90  1446.38  1447.10  1459.72  1540.34
                             1587.42  1639.56  1640.54  1649.54  1672.56
                             1718.52  1738.15  1795.87  1839.40  1872.49
                             1894.90  1897.23  1926.10  1931.21  1952.40
                             2025.86  2051.45  2069.28  2124.63  2126.70
                             2143.88  2169.09  2174.55  2190.58  2191.40
                             2205.59  2240.37  2295.70  2356.52  2465.53
                             4272.40  4394.72  4409.32  4461.14  4465.94
                             4507.33  4512.06  4521.72  4609.83  4620.89
                             4622.30  4625.89  4646.08  4731.24  5225.04

 Zero-point correction=                           0.256891 (Hartree/Particle)
 Thermal correction to Energy=                    0.274368
 Thermal correction to Enthalpy=                  0.275312
 Thermal correction to Gibbs Free Energy=         0.208452
 Sum of electronic and zero-point Energies=          -1161.006450
 Sum of electronic and thermal Energies=             -1160.988973
 Sum of electronic and thermal Enthalpies=           -1160.988029
 Sum of electronic and thermal Free Energies=        -1161.054889

                     E (Thermal)             CV                S
                      KCal/Mol        Cal/Mol-Kelvin    Cal/Mol-Kelvin
 Total                  172.168             63.701            140.718
 Electronic               0.000              0.000              0.000
 Translational            0.889              2.981             42.509
 Rotational               0.889              2.981             33.733
 Vibrational            170.391             57.739             64.476
 Vibration     1          0.593              1.987              7.476
 Vibration     2          0.594              1.983              5.720
 Vibration     3          0.594              1.982              5.461
 Vibration     4          0.597              1.973              4.455
 Vibration     5          0.597              1.972              4.385
 Vibration     6          0.599              1.967              4.076
 Vibration     7          0.607              1.940              3.239
 Vibration     8          0.611              1.927              3.010
 Vibration     9          0.629              1.869              2.348
 Vibration    10          0.637              1.843              2.153
 Vibration    11          0.646              1.816              1.986
 Vibration    12          0.652              1.797              1.886
 Vibration    13          0.655              1.787              1.840
 Vibration    14          0.665              1.755              1.700
 Vibration    15          0.698              1.657              1.368
 Vibration    16          0.713              1.615              1.259
 Vibration    17          0.721              1.593              1.207
 Vibration    18          0.722              1.589              1.197
 Vibration    19          0.752              1.508              1.031
 Vibration    20          0.794              1.399              0.850
 Vibration    21          0.799              1.385              0.829
 Vibration    22          0.840              1.287              0.701
 Vibration    23          0.842              1.280              0.693
 Vibration    24          0.886              1.180              0.584
 Vibration    25          0.905              1.141              0.545
 Vibration    26          0.967              1.015              0.436

 Normal termination of Gaussian 09 at Wed Oct 31 14:17:20 2018.
