 Gaussian 09, Revision E.01,

 ----------------------------------------------------------------------
 # M062X/Gen 6D SCF=Tight INT(grid=ultrafine) OPT IOP(2/17=4) maxdisk=2
 147483648
 ----------------------------------------------------------------------

 --------------------------------
 4SulfOxyMethyl.M062X_6-31pGd_opt
 --------------------------------
 Symbolic Z-matrix:
 Charge =  0 Multiplicity = 1

 SCF Done:  E(RM062X) =  -1161.73416342     A.U. after   17 cycles
 SCF Done:  E(RM062X) =  -1161.77686590     A.U. after   15 cycles
 SCF Done:  E(RM062X) =  -1161.79381383     A.U. after   17 cycles
 SCF Done:  E(RM062X) =  -1161.79626520     A.U. after   17 cycles
 SCF Done:  E(RM062X) =  -1161.79777176     A.U. after   16 cycles
 SCF Done:  E(RM062X) =  -1161.79921121     A.U. after   17 cycles
 SCF Done:  E(RM062X) =  -1161.79939267     A.U. after   16 cycles
 SCF Done:  E(RM062X) =  -1161.79952265     A.U. after   15 cycles
 SCF Done:  E(RM062X) =  -1161.79952765     A.U. after   12 cycles
 SCF Done:  E(RM062X) =  -1161.79953289     A.U. after   12 cycles
 SCF Done:  E(RM062X) =  -1161.80000372     A.U. after   14 cycles
 SCF Done:  E(RM062X) =  -1161.80003643     A.U. after   13 cycles
 SCF Done:  E(RM062X) =  -1161.80007142     A.U. after   14 cycles
 SCF Done:  E(RM062X) =  -1161.80008836     A.U. after   14 cycles
 SCF Done:  E(RM062X) =  -1161.80009412     A.U. after   12 cycles
 SCF Done:  E(RM062X) =  -1161.80009552     A.U. after   12 cycles
 SCF Done:  E(RM062X) =  -1161.80009590     A.U. after   11 cycles
 SCF Done:  E(RM062X) =  -1161.80009599     A.U. after   10 cycles
 Optimization completed.
    -- Stationary point found.
 Normal termination of Gaussian 09 at Tue Oct 30 13:16:27 2018.
 Gaussian 09:  ES64L-G09RevE.01 30-Nov-2015

 ----------------------------------------------------------------------
 # M062X/Gen 6D SCF=Tight INT(grid=ultrafine) OPT IOP(2/17=4) Freq=Nora
 man maxdisk=2147483648 geom=check guess=read IOP(2/17=4)
 ----------------------------------------------------------------------

 --------------------------------
 4SulfOxyMethyl.M062X_6-31pGd_opt
 --------------------------------
 Structure from the checkpoint file:  "4SulfOxyMethyl.M062X_6-31pGd_opt.chk"
 Charge =  0 Multiplicity = 1

 SCF Done:  E(RM062X) =  -1161.80009599     A.U. after    1 cycles
 Optimization completed.
    -- Stationary point found.
 Normal termination of Gaussian 09 at Tue Oct 30 13:17:19 2018.

 ----------------------------------------------------------------------
 #N Geom=AllCheck Guess=TCheck SCRF=Check Test GenChk RM062X/ChkBas Fre
 q
 ----------------------------------------------------------------------

 Structure from the checkpoint file:  "4SulfOxyMethyl.M062X_6-31pGd_opt.chk"
 --------------------------------
 4SulfOxyMethyl.M062X_6-31pGd_opt
 --------------------------------
 Charge =  0 Multiplicity = 1

                         Standard orientation:
 ---------------------------------------------------------------------
 Center     Atomic      Atomic             Coordinates (Angstroms)
 Number     Number       Type             X           Y           Z
 ---------------------------------------------------------------------
      1          6           0        7.534609   -0.399702   -0.088603
      2          6           0        6.275189    0.463311   -0.118975
      3          6           0        5.018536   -0.375608    0.073529
      4          7           0        3.830314    0.468391    0.036161
      5          6           0        2.593960   -0.130394   -0.018171
      6          8           0        2.444773   -1.330310   -0.164167
      7          7           0        1.542462    0.776457    0.073675
      8          6           0        0.173181    0.493415    0.075103
      9          6           0       -0.346980   -0.803293    0.211534
     10          6           0       -0.703173    1.586016   -0.033104
     11          6           0       -2.076387    1.398450   -0.011928
     12          6           0       -2.580213    0.106372    0.116391
     13          6           0       -1.725179   -0.985655    0.234607
     14          1           0        8.433079    0.208055   -0.226239
     15          1           0        7.512082   -1.151552   -0.884431
     16          1           0        7.628258   -0.926401    0.867017
     17          1           0        6.203760    0.998497   -1.073263
     18          1           0        6.334003    1.224731    0.671370
     19          1           0        5.069177   -0.933596    1.019391
     20          1           0        4.920956   -1.112941   -0.727851
     21          1           0        3.902215    1.358747    0.513588
     22          1           0        1.779834    1.755467   -0.019112
     23          1           0        0.322459   -1.647272    0.299440
     24          1           0       -0.300286    2.592082   -0.124375
     25          1           0       -2.757812    2.241912   -0.073475
     26         16           0       -4.338718   -0.147973    0.118479
     27          8           0       -4.974979    1.118682    0.481164
     28          8           0       -4.620710   -1.375544    0.861381
     29          1           0       -2.140753   -1.980753    0.367104
     30          6           0       -4.734052   -0.467627   -1.598548
     31          1           0       -4.453256    0.403045   -2.192936
     32          1           0       -5.813913   -0.628954   -1.636259
     33          1           0       -4.199360   -1.361759   -1.922525
 ---------------------------------------------------------------------

 SCF Done:  E(RM062X) =  -1161.80009599     A.U. after    1 cycles

 The electronic state is 1-A.
 Alpha  occ. eigenvalues --  -90.14003 -19.63296 -19.63242 -19.62984 -14.82318
 Alpha  occ. eigenvalues --  -14.80358 -10.70321 -10.62982 -10.59458 -10.58798
 Alpha  occ. eigenvalues --  -10.58465 -10.58425 -10.58100 -10.57938 -10.56790
 Alpha  occ. eigenvalues --  -10.56613 -10.55259  -8.45362  -6.37523  -6.37470
 Alpha  occ. eigenvalues --   -6.37444  -1.22379  -1.19710  -1.11665  -1.08038
 Alpha  occ. eigenvalues --   -1.04738  -0.98116  -0.90468  -0.88690  -0.87077
 Alpha  occ. eigenvalues --   -0.85640  -0.79836  -0.75227  -0.73386  -0.70329
 Alpha  occ. eigenvalues --   -0.69620  -0.67280  -0.65074  -0.63155  -0.60177
 Alpha  occ. eigenvalues --   -0.57547  -0.55980  -0.55489  -0.55247  -0.53949
 Alpha  occ. eigenvalues --   -0.53508  -0.53177  -0.52075  -0.51095  -0.50600
 Alpha  occ. eigenvalues --   -0.49680  -0.49339  -0.47902  -0.47464  -0.46099
 Alpha  occ. eigenvalues --   -0.44159  -0.43135  -0.42251  -0.41609  -0.40207
 Alpha  occ. eigenvalues --   -0.39341  -0.39110  -0.37029  -0.36521  -0.35119
 Alpha  occ. eigenvalues --   -0.33936  -0.33010  -0.29230
 Alpha virt. eigenvalues --   -0.01371  -0.01148  -0.00030   0.01386   0.01959
 Alpha virt. eigenvalues --    0.02679   0.02919   0.03338   0.03970   0.04585
 Alpha virt. eigenvalues --    0.05050   0.05084   0.06008   0.06429   0.06467

 Mulliken charges:
               1
     1  C   -0.717341
     2  C   -0.311284
     3  C   -0.182342
     4  N   -0.571388
     5  C    0.755022
     6  O   -0.562134
     7  N   -0.669360
     8  C    0.142774
     9  C    0.792525
    10  C   -1.167508
    11  C    0.144067
    12  C   -1.300456
    13  C   -0.293242
    14  H    0.215420
    15  H    0.216017
    16  H    0.214910
    17  H    0.227234
    18  H    0.203286
    19  H    0.217479
    20  H    0.242935
    21  H    0.385881
    22  H    0.412293
    23  H    0.273104
    24  H    0.200166
    25  H    0.258113
    26  S    1.464642
    27  O   -0.482656
    28  O   -0.470262
    29  H    0.255431
    30  C   -0.709222
    31  H    0.265635
    32  H    0.280656
    33  H    0.269604
 Sum of Mulliken charges =  -0.00000

 Dipole moment (field-independent basis, Debye):
    X=              6.7311    Y=              3.4461    Z=             -2.8920  Tot=              8.0961
 Quadrupole moment (field-independent basis, Debye-Ang):
   XX=           -113.1530   YY=           -107.9973   ZZ=           -110.7901
   XY=             10.6948   XZ=             21.8813   YZ=              1.8176

  Exact polarizability: 255.610   2.481 158.169   3.446  -1.810 116.300
 Approx polarizability: 239.259   2.112 223.550  -0.309  -4.509 148.209

                      1                      2                      3
                      A                      A                      A
 Frequencies --     18.6850                24.0244                46.9000
 Red. masses --      4.6688                 2.9920                 3.8089
 Frc consts  --      0.0010                 0.0010                 0.0049
 IR Inten    --      0.6595                 6.5980                 2.1195

                      4                      5                      6
                      A                      A                      A
 Frequencies --     54.2194                57.8634                72.2333
 Red. masses --      3.7936                 4.1397                 2.8498
 Frc consts  --      0.0066                 0.0082                 0.0088
 IR Inten    --      2.4338                 1.4060                 2.7636

                      7                      8                      9
                      A                      A                      A
 Frequencies --    101.6593               129.0404               180.9763
 Red. masses --      4.2391                 5.2088                 3.0281
 Frc consts  --      0.0258                 0.0511                 0.0584
 IR Inten    --      3.2427                 4.3588                 2.2155

                     10                     11                     12
                      A                      A                      A
 Frequencies --    189.1981               200.1077               213.6054
 Red. masses --      4.3995                 3.0330                 1.7263
 Frc consts  --      0.0928                 0.0716                 0.0464
 IR Inten    --      0.0222                 1.2599                 3.4036

                     13                     14                     15
                      A                      A                      A
 Frequencies --    223.2659               236.6393               303.3133
 Red. masses --      2.0356                 1.1462                 4.9172
 Frc consts  --      0.0598                 0.0378                 0.2665
 IR Inten    --      6.9140                 0.2015                 0.1113

                     16                     17                     18
                      A                      A                      A
 Frequencies --    328.3506               333.6596               344.0853
 Red. masses --      4.8085                 3.7709                 3.2357
 Frc consts  --      0.3054                 0.2473                 0.2257
 IR Inten    --      3.5002                14.8992                34.4076

                     19                     20                     21
                      A                      A                      A
 Frequencies --    366.8000               377.8572               419.2418
 Red. masses --      3.7597                 1.9842                 3.0266
 Frc consts  --      0.2980                 0.1669                 0.3134
 IR Inten    --     38.2863                21.4882                 0.1352

                     22                     23                     24
                      A                      A                      A
 Frequencies --    435.8369               479.6885               482.1311
 Red. masses --      5.0780                 3.2720                 3.8476
 Frc consts  --      0.5683                 0.4436                 0.5269
 IR Inten    --      0.6631                 2.7943                43.8458

                     25                     26                     27
                      A                      A                      A
 Frequencies --    502.7312               537.1854               553.5605
 Red. masses --      1.5124                 3.4037                 4.1419
 Frc consts  --      0.2252                 0.5787                 0.7478
 IR Inten    --    150.3303                36.2616                55.8613

                     28                     29                     30
                      A                      A                      A
 Frequencies --    638.7715               692.9509               725.6621
 Red. masses --      6.8647                 5.5563                 3.5952
 Frc consts  --      1.6503                 1.5719                 1.1154
 IR Inten    --      0.8903                21.5880                 6.6508

                     31                     32                     33
                      A                      A                      A
 Frequencies --    752.8085               765.7582               779.5086
 Red. masses --      2.0227                 1.8390                 5.5102
 Frc consts  --      0.6754                 0.6354                 1.9727
 IR Inten    --      9.0518                 3.6139                98.6897

                     34                     35                     36
                      A                      A                      A
 Frequencies --    793.7774               845.5006               870.9906
 Red. masses --      5.1979                 1.4261                 2.7914
 Frc consts  --      1.9296                 0.6006                 1.2477
 IR Inten    --     34.4350                18.3732                 8.8789

                     37                     38                     39
                      A                      A                      A
 Frequencies --    874.6288               901.8989               933.4207
 Red. masses --      1.8828                 1.1879                 1.6911
 Frc consts  --      0.8486                 0.5693                 0.8681
 IR Inten    --     18.3390                 2.6038                 3.6071

                     40                     41                     42
                      A                      A                      A
 Frequencies --    983.8986               987.3078               990.5638
 Red. masses --      1.3630                 1.3425                 1.3964
 Frc consts  --      0.7774                 0.7710                 0.8073
 IR Inten    --     36.7054                 0.7247                41.5860

                     43                     44                     45
                      A                      A                      A
 Frequencies --   1011.6058              1029.5158              1045.1379
 Red. masses --      1.3323                 3.4628                 4.1255
 Frc consts  --      0.8033                 2.1624                 2.6551
 IR Inten    --      0.6328                 3.3865                 2.2644

                     46                     47                     48
                      A                      A                      A
 Frequencies --   1079.5836              1119.3808              1144.4776
 Red. masses --      2.6540                 3.9792                 2.2778
 Frc consts  --      1.8225                 2.9377                 1.7579
 IR Inten    --      2.9683                54.2849                 8.1523

                     49                     50                     51
                      A                      A                      A
 Frequencies --   1156.1266              1164.7110              1167.8654
 Red. masses --      1.5316                 2.6946                 3.1838
 Frc consts  --      1.2061                 2.1537                 2.5585
 IR Inten    --     54.2257                30.4961               351.1134

                     52                     53                     54
                      A                      A                      A
 Frequencies --   1181.0448              1216.1696              1238.5950
 Red. masses --      1.7488                 1.2512                 1.6572
 Frc consts  --      1.4372                 1.0903                 1.4979
 IR Inten    --      0.3939                18.5237               286.6879

                     55                     56                     57
                      A                      A                      A
 Frequencies --   1281.9808              1301.1655              1328.0350
 Red. masses --      1.3208                 2.3291                 1.1506
 Frc consts  --      1.2790                 2.3233                 1.1956
 IR Inten    --     98.8237                 1.4662                13.9372

                     58                     59                     60
                      A                      A                      A
 Frequencies --   1332.2354              1339.9668              1346.7859
 Red. masses --      1.7405                 4.6218                 1.3673
 Frc consts  --      1.8200                 4.8894                 1.4612
 IR Inten    --     53.3403               137.2422                 0.8880

                     61                     62                     63
                      A                      A                      A
 Frequencies --   1364.6427              1367.5752              1426.3617
 Red. masses --      4.1098                 1.3166                 1.5230
 Frc consts  --      4.5093                 1.4508                 1.8256
 IR Inten    --    167.0342                26.4370                 0.8787

                     64                     65                     66
                      A                      A                      A
 Frequencies --   1438.3421              1452.5939              1472.4897
 Red. masses --      1.3164                 2.8952                 1.0487
 Frc consts  --      1.6046                 3.5993                 1.3397
 IR Inten    --      1.9491                74.2427                 2.1611

                     67                     68                     69
                      A                      A                      A
 Frequencies --   1475.6829              1516.3354              1525.0934
 Red. masses --      1.0509                 1.0600                 1.0518
 Frc consts  --      1.3483                 1.4359                 1.4414
 IR Inten    --      7.4631                 9.2311                21.8194

                     70                     71                     72
                      A                      A                      A
 Frequencies --   1527.5378              1533.6565              1541.8733
 Red. masses --      1.0748                 1.4783                 1.2000
 Frc consts  --      1.4776                 2.0486                 1.6809
 IR Inten    --      1.8391               117.3485               118.7034

                     73                     74                     75
                      A                      A                      A
 Frequencies --   1557.5721              1581.2420              1668.0642
 Red. masses --      2.4619                 2.5128                 5.2986
 Frc consts  --      3.5189                 3.7017                 8.6864
 IR Inten    --     28.8036              1051.0460                84.1160

                     76                     77                     78
                      A                      A                      A
 Frequencies --   1682.2623              1826.0832              3056.6915
 Red. masses --      5.9199                 8.8496                 1.0675
 Frc consts  --      9.8707                17.3866                 5.8768
 IR Inten    --     82.4952               265.5243                18.3978

                     79                     80                     81
                      A                      A                      A
 Frequencies --   3058.4890              3080.6902              3105.8550
 Red. masses --      1.0689                 1.0364                 1.0295
 Frc consts  --      5.8914                 5.7953                 5.8508
 IR Inten    --     40.6434                29.9660                 0.3295

                     82                     83                     84
                      A                      A                      A
 Frequencies --   3107.7560              3146.1205              3153.0967
 Red. masses --      1.0959                 1.0973                 1.1012
 Frc consts  --      6.2363                 6.3989                 6.4503
 IR Inten    --     15.6387                 1.2802                47.6752

                     85                     86                     87
                      A                      A                      A
 Frequencies --   3161.6472              3208.2694              3210.1053
 Red. masses --      1.1018                 1.0901                 1.1061
 Frc consts  --      6.4891                 6.6107                 6.7157
 IR Inten    --     27.8245                12.9666                 0.0791

                     88                     89                     90
                      A                      A                      A
 Frequencies --   3220.7441              3236.1774              3242.6551
 Red. masses --      1.1081                 1.0915                 1.0937
 Frc consts  --      6.7726                 6.7353                 6.7758
 IR Inten    --      0.1157                 0.7339                 2.4462

                     91                     92                     93
                      A                      A                      A
 Frequencies --   3296.5759              3619.3140              3636.1245
 Red. masses --      1.0933                 1.0773                 1.0770
 Frc consts  --      7.0002                 8.3145                 8.3896
 IR Inten    --      8.4592                22.4866                32.4627

 - Thermochemistry -
 -------------------
 Temperature   298.150 Kelvin.  Pressure   1.00000 Atm.
 Atom     1 has atomic number  6 and mass  12.00000

 Molecular mass:   256.08816 amu.
 Principal axes and moments of inertia in atomic units:
                           1         2         3
     Eigenvalues --   978.60182********************
           X            0.99998   0.00062   0.00631
           Y           -0.00068   0.99995   0.01031
           Z           -0.00630  -0.01031   0.99993
 This molecule is an asymmetric top.
 Rotational symmetry number  1.
 Warning -- assumption of classical behavior for rotation
           may cause significant error
 Rotational temperatures (Kelvin)      0.08851     0.00587     0.00567
 Rotational constants (GHZ):           1.84420     0.12221     0.11811
 Zero-point vibrational energy     710177.5 (Joules/Mol)
                                  169.73650 (Kcal/Mol)
 Warning -- explicit consideration of  27 degrees of freedom as
           vibrations may cause significant error
 Vibrational temperatures:     26.88    34.57    67.48    78.01    83.25
          (Kelvin)            103.93   146.26   185.66   260.38   272.21
                              287.91   307.33   321.23   340.47   436.40
                              472.42   480.06   495.06   527.74   543.65
                              603.19   627.07   690.16   693.68   723.32
                              772.89   796.45   919.05   997.00  1044.06
                             1083.12  1101.75  1121.54  1142.07  1216.49
                             1253.16  1258.39  1297.63  1342.98  1415.61
                             1420.51  1425.20  1455.47  1481.24  1503.72
                             1553.28  1610.54  1646.65  1663.41  1675.76
                             1680.30  1699.26  1749.79  1782.06  1844.48
                             1872.08  1910.74  1916.79  1927.91  1937.72
                             1963.41  1967.63  2052.21  2069.45  2089.96
                             2118.58  2123.18  2181.67  2194.27  2197.78
                             2206.59  2218.41  2241.00  2275.05  2399.97
                             2420.40  2627.32  4397.89  4400.48  4432.42
                             4468.63  4471.36  4526.56  4536.60  4548.90
                             4615.98  4618.62  4633.93  4656.13  4665.45
                             4743.03  5207.38  5231.57

 Zero-point correction=                           0.270492 (Hartree/Particle)
 Thermal correction to Energy=                    0.288509
 Thermal correction to Enthalpy=                  0.289453
 Thermal correction to Gibbs Free Energy=         0.221740
 Sum of electronic and zero-point Energies=          -1161.529604
 Sum of electronic and thermal Energies=             -1161.511587
 Sum of electronic and thermal Enthalpies=           -1161.510643
 Sum of electronic and thermal Free Energies=        -1161.578356

                     E (Thermal)             CV                S
                      KCal/Mol        Cal/Mol-Kelvin    Cal/Mol-Kelvin
 Total                  181.042             65.504            142.514
 Electronic               0.000              0.000              0.000
 Translational            0.889              2.981             42.521
 Rotational               0.889              2.981             33.756
 Vibrational            179.265             59.542             66.237
 Vibration     1          0.593              1.986              6.769
 Vibration     2          0.593              1.985              6.270
 Vibration     3          0.595              1.979              4.944
 Vibration     4          0.596              1.976              4.657
 Vibration     5          0.596              1.974              4.529
 Vibration     6          0.598              1.967              4.092
 Vibration     7          0.604              1.948              3.422
 Vibration     8          0.612              1.924              2.960
 Vibration     9          0.630              1.866              2.318
 Vibration    10          0.633              1.855              2.236
 Vibration    11          0.638              1.840              2.132
 Vibration    12          0.644              1.820              2.013
 Vibration    13          0.649              1.806              1.932
 Vibration    14          0.656              1.785              1.828
 Vibration    15          0.695              1.667              1.399
 Vibration    16          0.712              1.619              1.268
 Vibration    17          0.715              1.608              1.242
 Vibration    18          0.723              1.587              1.193
 Vibration    19          0.740              1.541              1.093
 Vibration    20          0.748              1.517              1.048
 Vibration    21          0.782              1.428              0.895
 Vibration    22          0.796              1.392              0.840
 Vibration    23          0.836              1.295              0.711
 Vibration    24          0.838              1.290              0.704
 Vibration    25          0.858              1.244              0.651
 Vibration    26          0.892              1.168              0.571
 Vibration    27          0.909              1.132              0.537

 Normal termination of Gaussian 09 at Tue Oct 30 14:02:42 2018.
