 Gaussian 09, Revision E.01,

 ----------------------------------------------------------------------
 # M062X/Gen 6D SCF=Tight INT(grid=ultrafine) OPT IOP(2/17=4) SCRF=(SMD
 ,Solvent=n-Pentadecane) maxdisk=2684354560
 ----------------------------------------------------------------------

 -----------------------------------------
 4Ketone_EtO.M062X_6-31pGd_opt_Pentadecane
 -----------------------------------------
 Symbolic Z-matrix:
 Charge = -1 Multiplicity = 1

 SCF Done:  E(RM062X) =  -994.400908529     A.U. after   15 cycles
 SCF Done:  E(RM062X) =  -994.434682232     A.U. after   13 cycles
 SCF Done:  E(RM062X) =  -994.445972579     A.U. after   14 cycles
 SCF Done:  E(RM062X) =  -994.448184527     A.U. after   13 cycles
 SCF Done:  E(RM062X) =  -994.448889700     A.U. after   14 cycles
 SCF Done:  E(RM062X) =  -994.448401261     A.U. after   16 cycles
 SCF Done:  E(RM062X) =  -994.448656001     A.U. after   16 cycles
 SCF Done:  E(RM062X) =  -994.449231321     A.U. after   15 cycles
 SCF Done:  E(RM062X) =  -994.449179705     A.U. after   13 cycles
 SCF Done:  E(RM062X) =  -994.449280303     A.U. after   12 cycles
 Optimization completed.
    -- Stationary point found.
 Normal termination of Gaussian 09 at Tue Feb 19 10:42:12 2019.
 Gaussian 09:  ES64L-G09RevE.01 30-Nov-2015

 ----------------------------------------------------------------------
 # M062X/Gen 6D SCF=Tight INT(grid=ultrafine) OPT IOP(2/17=4) SCRF=(SMD
 ,Solvent=n-Pentadecane) Freq=Noraman maxdisk=2684354560 geom=check gue
 ss=read IOP(2/17=4)
 ----------------------------------------------------------------------

 -----------------------------------------
 4Ketone_EtO.M062X_6-31pGd_opt_Pentadecane
 -----------------------------------------
 Structure from the checkpoint file:  "4Ketone_EtO.M062X_6-31pGd_opt_Pentadecane.chk"
 Charge = -1 Multiplicity = 1

 SCF Done:  E(RM062X) =  -994.451674344     A.U. after   11 cycles
 SCF Done:  E(RM062X) =  -994.451675715     A.U. after   11 cycles
 SCF Done:  E(RM062X) =  -994.451677340     A.U. after   11 cycles
 SCF Done:  E(RM062X) =  -994.451679181     A.U. after   10 cycles
 SCF Done:  E(RM062X) =  -994.451680322     A.U. after   11 cycles
 SCF Done:  E(RM062X) =  -994.451680522     A.U. after   11 cycles
 SCF Done:  E(RM062X) =  -994.451680924     A.U. after    9 cycles
 SCF Done:  E(RM062X) =  -994.451681163     A.U. after    9 cycles
 SCF Done:  E(RM062X) =  -994.451681253     A.U. after    8 cycles
 Optimization completed.
    -- Stationary point found.
 Normal termination of Gaussian 09 at Tue Feb 19 13:07:21 2019.

 ----------------------------------------------------------------------
 #N Geom=AllCheck Guess=TCheck SCRF=Check Test GenChk RM062X/ChkBas Fre
 q
 ----------------------------------------------------------------------

 Structure from the checkpoint file:  "4Ketone_EtO.M062X_6-31pGd_opt_Pentadecane.chk"
 -----------------------------------------
 4Ketone_EtO.M062X_6-31pGd_opt_Pentadecane
 -----------------------------------------
 Charge = -1 Multiplicity = 1

                         Standard orientation:
 ---------------------------------------------------------------------
 Center     Atomic      Atomic             Coordinates (Angstroms)
 Number     Number       Type             X           Y           Z
 ---------------------------------------------------------------------
      1          6           0       -5.798798   -2.788512    0.046278
      2          6           0       -4.719213   -1.710065    0.057436
      3          6           0       -3.322463   -2.314283   -0.026208
      4          7           0       -2.324900   -1.265133   -0.013465
      5          6           0       -1.009248   -1.577626   -0.007032
      6          8           0       -0.593235   -2.740551   -0.001913
      7          7           0       -0.184136   -0.460087   -0.002399
      8          6           0        1.193954   -0.432044   -0.000667
      9          6           0        2.025344   -1.570463   -0.012531
     10          6           0        1.799371    0.847930    0.013559
     11          6           0        3.173176    0.978206    0.014764
     12          6           0        4.010407   -0.151295    0.002423
     13          6           0        3.405709   -1.415115   -0.011034
     14          1           0       -6.799821   -2.348535    0.103566
     15          1           0       -5.684354   -3.471519    0.896473
     16          1           0       -5.749402   -3.387922   -0.870579
     17          1           0       -4.793958   -1.106307    0.969794
     18          1           0       -4.863830   -1.017378   -0.779956
     19          1           0       -3.227639   -2.919685   -0.939707
     20          1           0       -3.153451   -2.995834    0.818566
     21          1           0       -2.644374   -0.279986   -0.057529
     22          1           0       -0.647480    0.472230    0.012628
     23          1           0        1.577679   -2.554386   -0.021642
     24          1           0        1.154333    1.723155    0.023584
     25          1           0        3.628632    1.964339    0.025717
     26          6           0        5.480066    0.029560    0.004286
     27          1           0        4.018998   -2.312550   -0.020587
     28          8           0        5.991121    1.141288    0.016310
     29          6           0        6.363352   -1.203753   -0.009143
     30          1           0        6.171655   -1.811507   -0.899933
     31          1           0        7.407839   -0.887768   -0.005293
     32          1           0        6.171176   -1.831096    0.867863
     33          8           0       -3.340919    1.363109   -0.131831
     34          8           0       -1.236585    2.115579    0.053948
     35          6           0       -2.483564    2.279409   -0.032441
     36          6           0       -3.023695    3.716659   -0.007879
     37          6           0       -1.956327    4.802112    0.033297
     38          1           0       -3.688738    3.791649    0.862037
     39          1           0       -3.669224    3.834754   -0.886730
     40          1           0       -1.323857    4.695419    0.919410
     41          1           0       -2.411282    5.799888    0.051527
     42          1           0       -1.301135    4.739847   -0.840925
 ---------------------------------------------------------------------

 SCF Done:  E(RM062X) =  -994.451681253     A.U. after    1 cycles

 The electronic state is 1-A.
 Alpha  occ. eigenvalues --  -19.58666 -19.54270 -19.52459 -19.51983 -14.71885
 Alpha  occ. eigenvalues --  -14.70071 -10.61185 -10.59383 -10.57049 -10.55189
 Alpha  occ. eigenvalues --  -10.51829 -10.51247 -10.50577 -10.50485 -10.50157
 Alpha  occ. eigenvalues --  -10.49483 -10.49333 -10.49218 -10.49042 -10.47815
 Alpha  occ. eigenvalues --  -10.47555  -1.11408  -1.10354  -1.08547  -0.98993
 Alpha  occ. eigenvalues --   -0.98494  -0.95510  -0.90100  -0.83060  -0.81263
 Alpha  occ. eigenvalues --   -0.79865  -0.79345  -0.77395  -0.72337  -0.66715
 Alpha  occ. eigenvalues --   -0.66262  -0.65057  -0.62602  -0.60055  -0.58092
 Alpha  occ. eigenvalues --   -0.55702  -0.55010  -0.51663  -0.50749  -0.49704
 Alpha  occ. eigenvalues --   -0.47831  -0.47595  -0.47055  -0.46455  -0.46149
 Alpha  occ. eigenvalues --   -0.45547  -0.45464  -0.44536  -0.43808  -0.43271
 Alpha  occ. eigenvalues --   -0.42604  -0.41423  -0.41269  -0.40878  -0.39399
 Alpha  occ. eigenvalues --   -0.39235  -0.38909  -0.38336  -0.37458  -0.37024
 Alpha  occ. eigenvalues --   -0.35791  -0.34983  -0.34589  -0.34279  -0.33692
 Alpha  occ. eigenvalues --   -0.31240  -0.27992  -0.27439  -0.25982  -0.25389
 Alpha  occ. eigenvalues --   -0.24707  -0.24657  -0.24171  -0.20273
 Alpha virt. eigenvalues --    0.02972   0.05811   0.06895   0.07224   0.07325
 Alpha virt. eigenvalues --    0.07956   0.08064   0.08446   0.08993   0.09122
 Alpha virt. eigenvalues --    0.09516   0.10054   0.10573   0.10733   0.10840

 Mulliken charges:
               1
     1  C   -0.804780
     2  C   -0.340627
     3  C   -0.214716
     4  N   -0.806361
     5  C    0.800826
     6  O   -0.629081
     7  N   -0.666696
     8  C   -0.041895
     9  C   -0.490902
    10  C   -0.267718
    11  C   -0.095281
    12  C    0.709211
    13  C   -0.847171
    14  H    0.207826
    15  H    0.206539
    16  H    0.207290
    17  H    0.234399
    18  H    0.240289
    19  H    0.214057
    20  H    0.217747
    21  H    0.526629
    22  H    0.518030
    23  H    0.266435
    24  H    0.270270
    25  H    0.238542
    26  C    0.646485
    27  H    0.203717
    28  O   -0.492171
    29  C   -0.908280
    30  H    0.241799
    31  H    0.239441
    32  H    0.241809
    33  O   -0.651646
    34  O   -0.690970
    35  C    0.685206
    36  C   -0.500655
    37  C   -0.721010
    38  H    0.216674
    39  H    0.215937
    40  H    0.218954
    41  H    0.185410
    42  H    0.216438
 Sum of Mulliken charges =  -1.00000

 Dipole moment (field-independent basis, Debye):
    X=              0.5873    Y=             -2.8875    Z=              0.0848  Tot=              2.9478
 Quadrupole moment (field-independent basis, Debye-Ang):
   XX=           -180.1717   YY=           -153.5739   ZZ=           -132.1346
   XY=            -10.8283   XZ=             -1.0906   YZ=              0.0288

  Exact polarizability: 362.862  18.086 250.910   1.243   1.371 147.362
 Approx polarizability: 321.881  17.779 262.348   1.681   1.420 172.854

                      1                      2                      3
                      A                      A                      A
 Frequencies --     28.4176                32.7592                36.9135
 Red. masses --      4.7730                 3.9581                 3.8711
 Frc consts  --      0.0023                 0.0025                 0.0031
 IR Inten    --      0.4278                 2.6071                 1.8265

                      4                      5                      6
                      A                      A                      A
 Frequencies --     47.4700                51.6922                62.7801
 Red. masses --      5.3495                 3.4322                 3.6524
 Frc consts  --      0.0071                 0.0054                 0.0085
 IR Inten    --      1.6090                 1.4574                 2.2377

                      7                      8                      9
                      A                      A                      A
 Frequencies --     65.0686                69.8923                80.1850
 Red. masses --      3.9595                 2.7038                 2.7785
 Frc consts  --      0.0099                 0.0078                 0.0105
 IR Inten    --      1.4247                 1.8474                 1.3276

                     10                     11                     12
                      A                      A                      A
 Frequencies --     83.1241                85.3413               109.9423
 Red. masses --      4.5690                 3.8394                 5.4147
 Frc consts  --      0.0186                 0.0165                 0.0386
 IR Inten    --      5.9978                 3.2794                 6.3896

                     13                     14                     15
                      A                      A                      A
 Frequencies --    132.4656               143.2019               165.5495
 Red. masses --      4.6625                 5.3499                 1.0397
 Frc consts  --      0.0482                 0.0646                 0.0168
 IR Inten    --      0.5400                33.7225                 0.1784

                     16                     17                     18
                      A                      A                      A
 Frequencies --    178.0913               188.5302               220.3769
 Red. masses --      4.7135                 3.3701                 6.5621
 Frc consts  --      0.0881                 0.0706                 0.1878
 IR Inten    --     19.7916                 7.6221                 0.0590

                     19                     20                     21
                      A                      A                      A
 Frequencies --    240.2449               242.1552               244.4586
 Red. masses --      1.3344                 2.2236                 1.1727
 Frc consts  --      0.0454                 0.0768                 0.0413
 IR Inten    --      0.7532                 0.5205                 0.0710

                     22                     23                     24
                      A                      A                      A
 Frequencies --    285.1262               305.0408               345.7056
 Red. masses --      5.9015                 4.0323                 3.8456
 Frc consts  --      0.2827                 0.2211                 0.2708
 IR Inten    --      0.1640                16.6705                 0.0695

                     25                     26                     27
                      A                      A                      A
 Frequencies --    349.5934               398.4312               427.0957
 Red. masses --      5.4880                 5.6590                 3.0976
 Frc consts  --      0.3952                 0.5293                 0.3329
 IR Inten    --     16.6615                17.6777                 0.0009

                     28                     29                     30
                      A                      A                      A
 Frequencies --    455.2152               510.7565               519.2530
 Red. masses --      3.5216                 2.9575                 5.5994
 Frc consts  --      0.4300                 0.4546                 0.8895
 IR Inten    --      2.1472                 8.1740                21.3115

                     31                     32                     33
                      A                      A                      A
 Frequencies --    522.2739               585.1551               603.4905
 Red. masses --      5.0107                 1.9816                 2.3264
 Frc consts  --      0.8053                 0.3998                 0.4992
 IR Inten    --     22.6929                 1.3653                15.8139

                     34                     35                     36
                      A                      A                      A
 Frequencies --    608.8838               641.2413               659.1946
 Red. masses --      4.4861                 7.0809                 4.5867
 Frc consts  --      0.9799                 1.7155                 1.1743
 IR Inten    --     23.0110                 1.3909                52.9268

                     37                     38                     39
                      A                      A                      A
 Frequencies --    730.9039               739.3645               751.0000
 Red. masses --      4.7956                 3.9474                 1.2005
 Frc consts  --      1.5094                 1.2714                 0.3989
 IR Inten    --      8.1868                 0.0078                13.1538

                     40                     41                     42
                      A                      A                      A
 Frequencies --    765.2313               783.6792               811.0774
 Red. masses --      2.5141                 6.5788                 1.3748
 Frc consts  --      0.8674                 2.3805                 0.5329
 IR Inten    --     36.6957                 4.7684                 3.5718

                     43                     44                     45
                      A                      A                      A
 Frequencies --    824.2013               861.6322               874.7418
 Red. masses --      1.4355                 1.3022                 4.9874
 Frc consts  --      0.5745                 0.5696                 2.2485
 IR Inten    --     12.0528                34.7046                53.0122

                     46                     47                     48
                      A                      A                      A
 Frequencies --    878.7701               891.9623               902.7397
 Red. masses --      1.5111                 3.9326                 1.1620
 Frc consts  --      0.6876                 1.8434                 0.5579
 IR Inten    --     29.3827                25.3112                 6.7793

                     49                     50                     51
                      A                      A                      A
 Frequencies --    930.3491               956.3838               975.8279
 Red. masses --      1.7205                 1.0848                 2.0937
 Frc consts  --      0.8774                 0.5846                 1.1747
 IR Inten    --      3.9334               113.3348                72.7545

                     52                     53                     54
                      A                      A                      A
 Frequencies --    994.8878              1021.5141              1025.4994
 Red. masses --      1.2908                 1.3217                 1.6847
 Frc consts  --      0.7527                 0.8126                 1.0438
 IR Inten    --      2.3742                 1.1476                 1.8309

                     55                     56                     57
                      A                      A                      A
 Frequencies --   1027.8810              1049.9051              1051.8978
 Red. masses --      2.9767                 1.8359                 3.9773
 Frc consts  --      1.8530                 1.1923                 2.5929
 IR Inten    --     17.8544                 2.0457                23.6992

                     58                     59                     60
                      A                      A                      A
 Frequencies --   1084.0775              1107.9666              1108.6709
 Red. masses --      2.6311                 2.2553                 1.7664
 Frc consts  --      1.8219                 1.6312                 1.2792
 IR Inten    --      4.7984                15.5451                 0.7765

                     61                     62                     63
                      A                      A                      A
 Frequencies --   1114.2269              1152.1215              1164.0914
 Red. masses --      2.3450                 1.7168                 1.6840
 Frc consts  --      1.7153                 1.3426                 1.3445
 IR Inten    --      6.5053                13.2983                 8.6591

                     64                     65                     66
                      A                      A                      A
 Frequencies --   1183.3551              1191.6085              1204.8426
 Red. masses --      1.6336                 3.7168                 1.2125
 Frc consts  --      1.3478                 3.1095                 1.0371
 IR Inten    --      1.1904                13.3871               301.7973

                     67                     68                     69
                      A                      A                      A
 Frequencies --   1279.3529              1287.2379              1303.7167
 Red. masses --      1.1916                 1.1856                 1.9142
 Frc consts  --      1.1491                 1.1574                 1.9169
 IR Inten    --      2.5236                 0.0926               908.6030

                     70                     71                     72
                      A                      A                      A
 Frequencies --   1317.3094              1329.1954              1330.3796
 Red. masses --      2.7121                 1.3981                 1.2082
 Frc consts  --      2.7729                 1.4553                 1.2600
 IR Inten    --    330.2874                17.5605                 4.9868

                     73                     74                     75
                      A                      A                      A
 Frequencies --   1337.5920              1344.7770              1368.9965
 Red. masses --      1.6579                 1.7397                 2.2332
 Frc consts  --      1.7477                 1.8537                 2.4660
 IR Inten    --     38.0510               153.0831               211.5658

                     76                     77                     78
                      A                      A                      A
 Frequencies --   1393.2348              1409.6473              1426.5523
 Red. masses --      3.9819                 1.4783                 1.3239
 Frc consts  --      4.5540                 1.7307                 1.5874
 IR Inten    --    400.0761               120.5316                 5.2038

                     79                     80                     81
                      A                      A                      A
 Frequencies --   1427.0731              1436.3216              1473.4075
 Red. masses --      1.3211                 1.6440                 2.8681
 Frc consts  --      1.5852                 1.9982                 3.6685
 IR Inten    --     32.7654                16.0673               278.5788

                     82                     83                     84
                      A                      A                      A
 Frequencies --   1474.9474              1485.3697              1492.0993
 Red. masses --      3.3271                 1.3771                 1.0546
 Frc consts  --      4.2645                 1.7901                 1.3833
 IR Inten    --    117.8397                65.2342                18.3558

                     85                     86                     87
                      A                      A                      A
 Frequencies --   1498.1717              1503.8308              1512.6512
 Red. masses --      1.0467                 1.0742                 1.0418
 Frc consts  --      1.3842                 1.4313                 1.4044
 IR Inten    --     12.2925                 9.9882                 8.0221

                     88                     89                     90
                      A                      A                      A
 Frequencies --   1520.1453              1524.1834              1525.5281
 Red. masses --      1.0407                 1.0691                 1.0951
 Frc consts  --      1.4169                 1.4634                 1.5015
 IR Inten    --      8.6131                 6.9126                51.8657

                     91                     92                     93
                      A                      A                      A
 Frequencies --   1541.9374              1574.7292              1603.8034
 Red. masses --      1.0853                 2.8759                 3.1656
 Frc consts  --      1.5203                 4.2018                 4.7974
 IR Inten    --     12.8248                55.8285               575.1114

                     94                     95                     96
                      A                      A                      A
 Frequencies --   1632.9295              1671.7423              1682.0256
 Red. masses --      2.3714                 6.0790                 2.7186
 Frc consts  --      3.7255                10.0098                 4.5318
 IR Inten    --     26.8243              1388.0350               381.2799

                     97                     98                     99
                      A                      A                      A
 Frequencies --   1711.4222              1780.5741              1788.1183
 Red. masses --      3.3858                 3.0196                10.3682
 Frc consts  --      5.8428                 5.6405                19.5319
 IR Inten    --    477.1121               462.4083               311.2269

                    100                    101                    102
                      A                      A                      A
 Frequencies --   3044.1630              3067.6114              3070.9148
 Red. masses --      1.0625                 1.0368                 1.0554
 Frc consts  --      5.8011                 5.7484                 5.8641
 IR Inten    --     88.1388                51.8122                77.5751

                    103                    104                    105
                      A                      A                      A
 Frequencies --   3075.2820              3076.1015              3081.8081
 Red. masses --      1.0734                 1.0852                 1.0827
 Frc consts  --      5.9811                 6.0503                 6.0584
 IR Inten    --    374.1453               152.4847               521.2929

                    106                    107                    108
                      A                      A                      A
 Frequencies --   3085.0104              3088.0240              3109.6121
 Red. masses --      1.0613                 1.0372                 1.1007
 Frc consts  --      5.9510                 5.8275                 6.2712
 IR Inten    --     49.0671                 2.7975                16.3149

                    109                    110                    111
                      A                      A                      A
 Frequencies --   3118.1171              3140.2119              3142.4105
 Red. masses --      1.1030                 1.1039                 1.0970
 Frc consts  --      6.3186                 6.4136                 6.3824
 IR Inten    --      0.7190                79.4617                46.7012

                    112                    113                    114
                      A                      A                      A
 Frequencies --   3143.9787              3156.6596              3164.1462
 Red. masses --      1.1012                 1.1007                 1.1025
 Frc consts  --      6.4132                 6.4622                 6.5035
 IR Inten    --     37.1581                 6.7292                42.1397

                    115                    116                    117
                      A                      A                      A
 Frequencies --   3187.0957              3195.2914              3222.5757
 Red. masses --      1.0919                 1.1028                 1.0897
 Frc consts  --      6.5345                 6.6337                 6.6675
 IR Inten    --   2017.0663                19.0169                 0.7268

                    118                    119                    120
                      A                      A                      A
 Frequencies --   3223.6857              3237.7948              3294.0503
 Red. masses --      1.0899                 1.0947                 1.0923
 Frc consts  --      6.6733                 6.7618                 6.9829
 IR Inten    --     29.9364                 1.2926                 4.7959

 - Thermochemistry -
 -------------------
 Temperature   298.150 Kelvin.  Pressure   1.00000 Atm.
 Atom     1 has atomic number  6 and mass  12.00000

 Molecular mass:   293.15013 amu.
 Principal axes and moments of inertia in atomic units:
                           1         2         3
     Eigenvalues --  4579.54147********************
           X            1.00000  -0.00121  -0.00040
           Y            0.00121   1.00000   0.00029
           Z            0.00040  -0.00029   1.00000
 This molecule is an asymmetric top.
 Rotational symmetry number  1.
 Warning -- assumption of classical behavior for rotation
           may cause significant error
 Rotational temperatures (Kelvin)      0.01891     0.00654     0.00488
 Rotational constants (GHZ):           0.39409     0.13635     0.10170
 Zero-point vibrational energy     919922.7 (Joules/Mol)
                                  219.86681 (Kcal/Mol)
 Warning -- explicit consideration of  34 degrees of freedom as
           vibrations may cause significant error
 Vibrational temperatures:     40.89    47.13    53.11    68.30    74.37
          (Kelvin)             90.33    93.62   100.56   115.37   119.60
                              122.79   158.18   190.59   206.04   238.19
                              256.23   271.25   317.07   345.66   348.41
                              351.72   410.23   438.89   497.39   502.99
                              573.25   614.49   654.95   734.86   747.09
                              751.43   841.91   868.29   876.05   922.60
                              948.43  1051.61  1063.78  1080.52  1101.00
                             1127.54  1166.96  1185.84  1239.69  1258.56
                             1264.35  1283.33  1298.84  1338.56  1376.02
                             1404.00  1431.42  1469.73  1475.46  1478.89
                             1510.58  1513.44  1559.74  1594.11  1595.13
                             1603.12  1657.64  1674.87  1702.58  1714.46
                             1733.50  1840.70  1852.05  1875.76  1895.31
                             1912.41  1914.12  1924.49  1934.83  1969.68
                             2004.55  2028.17  2052.49  2053.24  2066.54
                             2119.90  2122.12  2137.11  2146.80  2155.53
                             2163.67  2176.36  2187.15  2192.96  2194.89
                             2218.50  2265.68  2307.51  2349.42  2405.26
                             2420.06  2462.35  2561.85  2572.70  4379.87
                             4413.60  4418.36  4424.64  4425.82  4434.03
                             4438.64  4442.97  4474.03  4486.27  4518.06
                             4521.22  4523.48  4541.72  4552.49  4585.51
                             4597.31  4636.56  4638.16  4658.46  4739.40

 Zero-point correction=                           0.350380 (Hartree/Particle)
 Thermal correction to Energy=                    0.373508
 Thermal correction to Enthalpy=                  0.374452
 Thermal correction to Gibbs Free Energy=         0.294375
 Sum of electronic and zero-point Energies=           -994.101301
 Sum of electronic and thermal Energies=              -994.078173
 Sum of electronic and thermal Enthalpies=            -994.077229
 Sum of electronic and thermal Free Energies=         -994.157306

                     E (Thermal)             CV                S
                      KCal/Mol        Cal/Mol-Kelvin    Cal/Mol-Kelvin
 Total                  234.380             81.509            168.536
 Electronic               0.000              0.000              0.000
 Translational            0.889              2.981             42.924
 Rotational               0.889              2.981             35.330
 Vibrational            232.603             75.548             90.283
 Vibration     1          0.593              1.984              5.937
 Vibration     2          0.594              1.983              5.655
 Vibration     3          0.594              1.982              5.418
 Vibration     4          0.595              1.979              4.920
 Vibration     5          0.596              1.977              4.752
 Vibration     6          0.597              1.972              4.368
 Vibration     7          0.597              1.971              4.297
 Vibration     8          0.598              1.968              4.156
 Vibration     9          0.600              1.963              3.886
 Vibration    10          0.600              1.961              3.816
 Vibration    11          0.601              1.959              3.764
 Vibration    12          0.606              1.941              3.270
 Vibration    13          0.613              1.921              2.910
 Vibration    14          0.616              1.910              2.761
 Vibration    15          0.624              1.885              2.485
 Vibration    16          0.629              1.869              2.348
 Vibration    17          0.633              1.856              2.242
 Vibration    18          0.647              1.810              1.956
 Vibration    19          0.657              1.779              1.801
 Vibration    20          0.658              1.776              1.787
 Vibration    21          0.660              1.772              1.770
 Vibration    22          0.683              1.701              1.503
 Vibration    23          0.696              1.664              1.389
 Vibration    24          0.724              1.584              1.186
 Vibration    25          0.727              1.576              1.168
 Vibration    26          0.765              1.473              0.968
 Vibration    27          0.789              1.411              0.868
 Vibration    28          0.814              1.349              0.780
 Vibration    29          0.866              1.226              0.632
 Vibration    30          0.874              1.207              0.612
 Vibration    31          0.877              1.201              0.605
 Vibration    32          0.942              1.063              0.476
 Vibration    33          0.962              1.024              0.444
 Vibration    34          0.968              1.013              0.435

 Normal termination of Gaussian 09 at Tue Feb 19 13:52:50 2019.
