 Gaussian 09, Revision E.01,

 ----------------------------------------------------------------------
 # M062X/Gen 6D SCF=Tight INT(grid=ultrafine) OPT IOP(2/17=4) SCRF=(SMD
 ,Solvent=n-Pentadecane) maxdisk=2147483648
 ----------------------------------------------------------------------

 -------------------------------------
 4Ketone.M062X_6-31pGd_opt_Pentadecane
 -------------------------------------
 Symbolic Z-matrix:
 Charge =  0 Multiplicity = 1

 SCF Done:  E(RM062X) =  -726.612036924     A.U. after   15 cycles
 SCF Done:  E(RM062X) =  -726.621810983     A.U. after   15 cycles
 SCF Done:  E(RM062X) =  -726.623222082     A.U. after   15 cycles
 SCF Done:  E(RM062X) =  -726.623875414     A.U. after   14 cycles
 SCF Done:  E(RM062X) =  -726.624149509     A.U. after   12 cycles
 SCF Done:  E(RM062X) =  -726.624196612     A.U. after   13 cycles
 SCF Done:  E(RM062X) =  -726.624207484     A.U. after   12 cycles
 SCF Done:  E(RM062X) =  -726.624240269     A.U. after   13 cycles
 SCF Done:  E(RM062X) =  -726.624247783     A.U. after   11 cycles
 SCF Done:  E(RM062X) =  -726.624249592     A.U. after   11 cycles
 SCF Done:  E(RM062X) =  -726.623892511     A.U. after   16 cycles
 SCF Done:  E(RM062X) =  -726.624420401     A.U. after   16 cycles
 SCF Done:  E(RM062X) =  -726.624482698     A.U. after   14 cycles
 SCF Done:  E(RM062X) =  -726.624489716     A.U. after   13 cycles
 SCF Done:  E(RM062X) =  -726.624491095     A.U. after   12 cycles
 SCF Done:  E(RM062X) =  -726.624492390     A.U. after   11 cycles
 SCF Done:  E(RM062X) =  -726.624492743     A.U. after   10 cycles
 SCF Done:  E(RM062X) =  -726.624493111     A.U. after   10 cycles
 SCF Done:  E(RM062X) =  -726.624493233     A.U. after    9 cycles
 Optimization completed.
    -- Stationary point found.
 Normal termination of Gaussian 09 at Fri Feb 22 19:47:53 2019.
 Gaussian 09:  ES64L-G09RevE.01 30-Nov-2015

 ----------------------------------------------------------------------
 # M062X/Gen 6D SCF=Tight INT(grid=ultrafine) SCRF=(SMD,Solvent=n-Penta
 decane) Freq=Noraman maxdisk=2147483648 geom=check guess=read IOP(2/17
 =4)
 ----------------------------------------------------------------------

 -------------------------------------
 4Ketone.M062X_6-31pGd_opt_Pentadecane
 -------------------------------------
 Structure from the checkpoint file:  "4Ketone.M062X_6-31pGd_opt_Pentadecane.chk"
 Charge =  0 Multiplicity = 1

                         Standard orientation:
 ---------------------------------------------------------------------
 Center     Atomic      Atomic             Coordinates (Angstroms)
 Number     Number       Type             X           Y           Z
 ---------------------------------------------------------------------
      1          6           0       -6.844236   -0.338103    0.038203
      2          6           0       -5.561955    0.484274    0.127167
      3          6           0       -4.330230   -0.369206   -0.147146
      4          7           0       -3.121950    0.439459   -0.061433
      5          6           0       -1.895223   -0.165477    0.005936
      6          8           0       -1.756451   -1.374339    0.123386
      7          7           0       -0.836960    0.731354   -0.040507
      8          6           0        0.531634    0.453413   -0.018248
      9          6           0        1.068872   -0.841596   -0.038185
     10          6           0        1.403455    1.557899    0.012754
     11          6           0        2.773731    1.374755    0.022156
     12          6           0        3.322526    0.085444    0.001957
     13          6           0        2.450576   -1.006705   -0.028766
     14          1           0       -7.723898    0.280014    0.240810
     15          1           0       -6.835888   -1.157635    0.765130
     16          1           0       -6.964867   -0.775977   -0.958832
     17          1           0       -5.468098    0.934376    1.122725
     18          1           0       -5.604412    1.310097   -0.596325
     19          1           0       -4.408872   -0.847402   -1.134038
     20          1           0       -4.246056   -1.168746    0.593824
     21          1           0       -3.176582    1.376403   -0.443188
     22          1           0       -1.073341    1.715736   -0.008222
     23          1           0        0.411483   -1.699162   -0.055952
     24          1           0        0.991174    2.564582    0.028896
     25          1           0        3.443021    2.229408    0.046340
     26          6           0        4.806833   -0.068818    0.013228
     27          1           0        2.843277   -2.019394   -0.045185
     28          8           0        5.534075    0.909691    0.035756
     29          6           0        5.390511   -1.463689   -0.004069
     30          1           0        6.478915   -1.391704    0.007525
     31          1           0        5.071886   -2.006522   -0.900563
     32          1           0        5.054691   -2.035723    0.867577
 ---------------------------------------------------------------------

 SCF Done:  E(RM062X) =  -726.624493233     A.U. after    1 cycles

 The electronic state is 1-A.
 Alpha  occ. eigenvalues --  -19.63330 -19.61814 -14.80950 -14.79070 -10.69185
 Alpha  occ. eigenvalues --  -10.63952 -10.61567 -10.58239 -10.56528 -10.56237
 Alpha  occ. eigenvalues --  -10.56148 -10.55695 -10.55296 -10.55252 -10.54273
 Alpha  occ. eigenvalues --  -10.53980  -1.18422  -1.16201  -1.06720  -1.03440
 Alpha  occ. eigenvalues --   -0.96238  -0.89081  -0.86692  -0.85228  -0.82571
 Alpha  occ. eigenvalues --   -0.78321  -0.72788  -0.71445  -0.68973  -0.67230
 Alpha  occ. eigenvalues --   -0.63577  -0.63445  -0.61545  -0.56492  -0.55775
 Alpha  occ. eigenvalues --   -0.53983  -0.53370  -0.52640  -0.51805  -0.51213
 Alpha  occ. eigenvalues --   -0.50888  -0.49344  -0.48497  -0.48031  -0.46534
 Alpha  occ. eigenvalues --   -0.46512  -0.44906  -0.43945  -0.42913  -0.42545
 Alpha  occ. eigenvalues --   -0.41057  -0.40837  -0.40191  -0.37790  -0.35202
 Alpha  occ. eigenvalues --   -0.32651  -0.32159  -0.31559  -0.27450
 Alpha virt. eigenvalues --   -0.02057   0.00315   0.01563   0.02468   0.03049
 Alpha virt. eigenvalues --    0.03758   0.03825   0.04166   0.04941   0.05130
 Alpha virt. eigenvalues --    0.05903   0.06222   0.06531   0.06939   0.07259

 Mulliken charges:
               1
     1  C   -0.742366
     2  C   -0.319633
     3  C   -0.194670
     4  N   -0.613498
     5  C    0.870643
     6  O   -0.606625
     7  N   -0.651883
     8  C   -0.032897
     9  C    0.278728
    10  C   -1.322185
    11  C    0.238911
    12  C    0.447465
    13  C   -0.729538
    14  H    0.217943
    15  H    0.219299
    16  H    0.217466
    17  H    0.229518
    18  H    0.210231
    19  H    0.219999
    20  H    0.245030
    21  H    0.411515
    22  H    0.437978
    23  H    0.272417
    24  H    0.214305
    25  H    0.253021
    26  C    0.633450
    27  H    0.223483
    28  O   -0.465017
    29  C   -0.909771
    30  H    0.251463
    31  H    0.246989
    32  H    0.248230
 Sum of Mulliken charges =  -0.00000

 Dipole moment (field-independent basis, Debye):
    X=             -5.6073    Y=              1.7798    Z=             -0.8575  Tot=              5.9451
 Quadrupole moment (field-independent basis, Debye-Ang):
   XX=           -101.4086   YY=            -90.8649   ZZ=            -99.2335
   XY=            -22.4737   XZ=              2.0459   YZ=             -0.6434

  Exact polarizability: 279.042  -0.694 176.976   1.702   0.675 110.352
 Approx polarizability: 243.086   4.250 206.184   1.605   0.027 127.681

                      1                      2                      3
                      A                      A                      A
 Frequencies --     24.4304                34.2321                58.6612
 Red. masses --      5.0016                 2.5139                 3.5249
 Frc consts  --      0.0018                 0.0017                 0.0071
 IR Inten    --      0.2419                 7.5215                 8.2236

                      4                      5                      6
                      A                      A                      A
 Frequencies --     61.0944                69.7008                70.2465
 Red. masses --      3.8296                 4.6438                 2.8461
 Frc consts  --      0.0084                 0.0133                 0.0083
 IR Inten    --      5.8644                 0.1718                 2.4408

                      7                      8                      9
                      A                      A                      A
 Frequencies --    123.9572               139.1910               170.3190
 Red. masses --      5.0804                 4.5778                 1.0289
 Frc consts  --      0.0460                 0.0523                 0.0176
 IR Inten    --      0.5637                18.9882                 0.1476

                     10                     11                     12
                      A                      A                      A
 Frequencies --    193.4435               217.3533               231.5905
 Red. masses --      2.9869                 6.4118                 2.8106
 Frc consts  --      0.0659                 0.1785                 0.0888
 IR Inten    --      0.8973                 0.2008                 1.3352

                     13                     14                     15
                      A                      A                      A
 Frequencies --    238.6071               289.7207               332.6568
 Red. masses --      1.2410                 5.1951                 3.0698
 Frc consts  --      0.0416                 0.2569                 0.2002
 IR Inten    --      0.3340                 0.1076                30.2543

                     16                     17                     18
                      A                      A                      A
 Frequencies --    343.5651               362.6730               399.4545
 Red. masses --      3.7381                 1.6137                 4.5876
 Frc consts  --      0.2600                 0.1251                 0.4313
 IR Inten    --     37.0567                60.0421                 4.0594

                     19                     20                     21
                      A                      A                      A
 Frequencies --    421.3279               456.9542               506.7324
 Red. masses --      3.0070                 3.2561                 2.9314
 Frc consts  --      0.3145                 0.4006                 0.4435
 IR Inten    --      0.0801                 6.5248                17.9767

                     22                     23                     24
                      A                      A                      A
 Frequencies --    521.2567               539.4919               601.4287
 Red. masses --      4.2690                 1.1938                 2.2820
 Frc consts  --      0.6834                 0.2047                 0.4863
 IR Inten    --     25.2594               140.1730                24.7306

                     25                     26                     27
                      A                      A                      A
 Frequencies --    606.8606               643.1838               730.5476
 Red. masses --      4.2349                 6.9646                 4.6302
 Frc consts  --      0.9189                 1.6975                 1.4559
 IR Inten    --     20.0703                 1.3723                16.0522

                     28                     29                     30
                      A                      A                      A
 Frequencies --    737.9575               754.5861               766.4841
 Red. masses --      3.7320                 1.5341                 2.6113
 Frc consts  --      1.1975                 0.5147                 0.9039
 IR Inten    --      0.1599                11.1601                 4.2352

                     31                     32                     33
                      A                      A                      A
 Frequencies --    792.4341               854.9013               868.0693
 Red. masses --      5.4859                 1.3687                 1.4579
 Frc consts  --      2.0297                 0.5894                 0.6473
 IR Inten    --      4.9938                27.1792                55.7785

                     34                     35                     36
                      A                      A                      A
 Frequencies --    875.3468               899.7364               933.3838
 Red. masses --      5.1022                 1.1881                 1.6854
 Frc consts  --      2.3034                 0.5667                 0.8651
 IR Inten    --      1.1505                 2.9939                 4.7088

                     37                     38                     39
                      A                      A                      A
 Frequencies --    979.1044               995.2751              1010.3309
 Red. masses --      2.0659                 1.3075                 1.3463
 Frc consts  --      1.1668                 0.7631                 0.8097
 IR Inten    --     51.5004                 0.0261                 0.8985

                     40                     41                     42
                      A                      A                      A
 Frequencies --   1030.7218              1046.7648              1054.0711
 Red. masses --      3.0655                 4.0267                 1.8649
 Frc consts  --      1.9188                 2.5995                 1.2208
 IR Inten    --      0.7787                 2.2197                 1.2475

                     43                     44                     45
                      A                      A                      A
 Frequencies --   1081.7174              1110.1311              1146.4108
 Red. masses --      2.5563                 2.3088                 2.1089
 Frc consts  --      1.7624                 1.6764                 1.6330
 IR Inten    --      2.8981                 2.9939                 7.2952

                     46                     47                     48
                      A                      A                      A
 Frequencies --   1161.4375              1168.7708              1181.6470
 Red. masses --      1.7781                 1.9158                 1.8872
 Frc consts  --      1.4132                 1.5419                 1.5525
 IR Inten    --      9.5244                 3.9311                 6.4082

                     49                     50                     51
                      A                      A                      A
 Frequencies --   1208.3656              1249.1809              1279.4393
 Red. masses --      1.1785                 1.6367                 1.2966
 Frc consts  --      1.0139                 1.5048                 1.2505
 IR Inten    --    239.5072               398.7219               159.5053

                     52                     53                     54
                      A                      A                      A
 Frequencies --   1302.2044              1313.7464              1325.5336
 Red. masses --      2.3768                 2.7814                 1.1545
 Frc consts  --      2.3746                 2.8284                 1.1952
 IR Inten    --     30.5261               315.9817                 8.2203

                     55                     56                     57
                      A                      A                      A
 Frequencies --   1342.8000              1346.9848              1374.5361
 Red. masses --      1.4575                 1.3848                 5.0771
 Frc consts  --      1.5484                 1.4804                 5.6517
 IR Inten    --     52.7297                27.9400               201.8888

                     58                     59                     60
                      A                      A                      A
 Frequencies --   1411.8917              1424.3749              1435.8269
 Red. masses --      1.4460                 1.5084                 1.3403
 Frc consts  --      1.6984                 1.8031                 1.6280
 IR Inten    --    111.6320                 4.7658                 1.8689

                     61                     62                     63
                      A                      A                      A
 Frequencies --   1460.6632              1488.0163              1495.2638
 Red. masses --      2.9829                 1.0518                 1.0466
 Frc consts  --      3.7496                 1.3722                 1.3787
 IR Inten    --     33.1071                15.7931                14.5237

                     64                     65                     66
                      A                      A                      A
 Frequencies --   1507.5839              1519.2411              1521.9113
 Red. masses --      1.0617                 1.0413                 1.0726
 Frc consts  --      1.4218                 1.4161                 1.4638
 IR Inten    --      8.5276                13.9326                 3.6917

                     67                     68                     69
                      A                      A                      A
 Frequencies --   1533.7906              1552.2784              1573.2274
 Red. masses --      1.0963                 1.7373                 2.5071
 Frc consts  --      1.5196                 2.4665                 3.6560
 IR Inten    --      8.4558               345.6274               200.9176

                     70                     71                     72
                      A                      A                      A
 Frequencies --   1585.9787              1667.5556              1690.7118
 Red. masses --      2.5892                 4.3859                 5.8318
 Frc consts  --      3.8371                 7.1858                 9.8218
 IR Inten    --   1151.8285                75.7108               171.8816

                     73                     74                     75
                      A                      A                      A
 Frequencies --   1804.0944              1811.9909              3055.0025
 Red. masses --      7.9859                11.2592                 1.0706
 Frc consts  --     15.3142                21.7806                 5.8871
 IR Inten    --    377.1035               307.0217                37.3564

                     76                     77                     78
                      A                      A                      A
 Frequencies --   3062.7800              3079.1981              3088.9374
 Red. masses --      1.0643                 1.0366                 1.0375
 Frc consts  --      5.8821                 5.7906                 5.8323
 IR Inten    --     39.8175                34.4386                 1.0738

                     79                     80                     81
                      A                      A                      A
 Frequencies --   3107.0646              3145.7605              3151.8898
 Red. masses --      1.0980                 1.0985                 1.0995
 Frc consts  --      6.2454                 6.4049                 6.4358
 IR Inten    --     18.8956                 5.6793                57.7808

                     82                     83                     84
                      A                      A                      A
 Frequencies --   3157.6933              3158.0933              3199.6835
 Red. masses --      1.1005                 1.1020                 1.1031
 Frc consts  --      6.4653                 6.4754                 6.6538
 IR Inten    --      4.4187                33.8110                13.4429

                     85                     86                     87
                      A                      A                      A
 Frequencies --   3207.4800              3232.7995              3245.3464
 Red. masses --      1.0902                 1.0908                 1.0931
 Frc consts  --      6.6082                 6.7165                 6.7832
 IR Inten    --     14.2868                 5.0912                 2.5382

                     88                     89                     90
                      A                      A                      A
 Frequencies --   3296.0006              3618.9555              3631.3599
 Red. masses --      1.0933                 1.0780                 1.0773
 Frc consts  --      6.9979                 8.3184                 8.3699
 IR Inten    --      6.7283                19.6569                74.1270

 - Thermochemistry -
 -------------------
 Temperature   298.150 Kelvin.  Pressure   1.00000 Atm.
 Atom     1 has atomic number  6 and mass  12.00000

 Molecular mass:   220.12118 amu.
 Principal axes and moments of inertia in atomic units:
                           1         2         3
     Eigenvalues --   743.88836********************
           X            0.99997  -0.00793   0.00019
           Y            0.00793   0.99997   0.00119
           Z           -0.00020  -0.00118   1.00000
 This molecule is an asymmetric top.
 Rotational symmetry number  1.
 Warning -- assumption of classical behavior for rotation
           may cause significant error
 Rotational temperatures (Kelvin)      0.11643     0.00749     0.00707
 Rotational constants (GHZ):           2.42609     0.15606     0.14727
 Zero-point vibrational energy     708806.5 (Joules/Mol)
                                  169.40883 (Kcal/Mol)
 Warning -- explicit consideration of  25 degrees of freedom as
           vibrations may cause significant error
 Vibrational temperatures:     35.15    49.25    84.40    87.90   100.28
          (Kelvin)            101.07   178.35   200.26   245.05   278.32
                              312.72   333.21   343.30   416.84   478.62
                              494.31   521.80   574.73   606.20   657.45
                              729.07   749.97   776.21   865.32   873.14
                              925.40  1051.09  1061.75  1085.68  1102.80
                             1140.13  1230.01  1248.96  1259.43  1294.52
                             1342.93  1408.71  1431.98  1453.64  1482.98
                             1506.06  1516.57  1556.35  1597.23  1649.43
                             1671.05  1681.60  1700.12  1738.57  1797.29
                             1840.83  1873.58  1890.19  1907.14  1931.99
                             1938.01  1977.65  2031.39  2049.36  2065.83
                             2101.57  2140.92  2151.35  2169.07  2185.85
                             2189.69  2206.78  2233.38  2263.52  2281.87
                             2399.24  2432.55  2595.69  2607.05  4395.46
                             4406.65  4430.27  4444.29  4470.37  4526.04
                             4534.86  4543.21  4543.79  4603.63  4614.84
                             4651.27  4669.32  4742.20  5206.86  5224.71

 Zero-point correction=                           0.269970 (Hartree/Particle)
 Thermal correction to Energy=                    0.286577
 Thermal correction to Enthalpy=                  0.287522
 Thermal correction to Gibbs Free Energy=         0.223739
 Sum of electronic and zero-point Energies=           -726.354523
 Sum of electronic and thermal Energies=              -726.337916
 Sum of electronic and thermal Enthalpies=            -726.336972
 Sum of electronic and thermal Free Energies=         -726.400754

                     E (Thermal)             CV                S
                      KCal/Mol        Cal/Mol-Kelvin    Cal/Mol-Kelvin
 Total                  179.830             60.346            134.241
 Electronic               0.000              0.000              0.000
 Translational            0.889              2.981             42.070
 Rotational               0.889              2.981             33.022
 Vibrational            178.053             54.385             59.149
 Vibration     1          0.593              1.985              6.237
 Vibration     2          0.594              1.983              5.568
 Vibration     3          0.596              1.974              4.502
 Vibration     4          0.597              1.973              4.422
 Vibration     5          0.598              1.969              4.162
 Vibration     6          0.598              1.968              4.146
 Vibration     7          0.610              1.929              3.038
 Vibration     8          0.615              1.914              2.815
 Vibration     9          0.625              1.879              2.432
 Vibration    10          0.635              1.849              2.195
 Vibration    11          0.646              1.815              1.981
 Vibration    12          0.653              1.793              1.867
 Vibration    13          0.657              1.781              1.813
 Vibration    14          0.686              1.693              1.476
 Vibration    15          0.715              1.610              1.247
 Vibration    16          0.722              1.588              1.196
 Vibration    17          0.737              1.549              1.111
 Vibration    18          0.766              1.471              0.965
 Vibration    19          0.784              1.424              0.887
 Vibration    20          0.815              1.346              0.775
 Vibration    21          0.862              1.235              0.642
 Vibration    22          0.876              1.203              0.607
 Vibration    23          0.895              1.163              0.566
 Vibration    24          0.960              1.029              0.447
 Vibration    25          0.966              1.017              0.438

 Optimization completed.
    -- Stationary point found.
 Normal termination of Gaussian 09 at Fri Feb 22 20:26:37 2019.
