 Gaussian 09, Revision E.01,

 ----------------------------------------------------------------------
 # M062X/Gen 6D SCF=Tight INT(grid=ultrafine) OPT IOP(2/17=4) SCRF=(SMD
 ,Solvent=h2o) maxdisk=2684354560
 ----------------------------------------------------------------------

 -----------------------------------
 4Ketone_EtO.M062X_6-31pGd_opt_water
 -----------------------------------
 Symbolic Z-matrix:
 Charge = -1 Multiplicity = 1

 SCF Done:  E(RM062X) =  -994.487995770     A.U. after   15 cycles
 SCF Done:  E(RM062X) =  -994.489235878     A.U. after   12 cycles
 SCF Done:  E(RM062X) =  -994.489466716     A.U. after   13 cycles
 SCF Done:  E(RM062X) =  -994.489008706     A.U. after   16 cycles
 SCF Done:  E(RM062X) =  -994.489568456     A.U. after   15 cycles
 SCF Done:  E(RM062X) =  -994.489623951     A.U. after   12 cycles
 SCF Done:  E(RM062X) =  -994.489595476     A.U. after   12 cycles
 SCF Done:  E(RM062X) =  -994.489659689     A.U. after   12 cycles
 SCF Done:  E(RM062X) =  -994.489665706     A.U. after   11 cycles
 SCF Done:  E(RM062X) =  -994.489674939     A.U. after   12 cycles
 SCF Done:  E(RM062X) =  -994.489763080     A.U. after    9 cycles
 SCF Done:  E(RM062X) =  -994.489763295     A.U. after   10 cycles
 SCF Done:  E(RM062X) =  -994.489763366     A.U. after    9 cycles
 SCF Done:  E(RM062X) =  -994.489763417     A.U. after    9 cycles
 SCF Done:  E(RM062X) =  -994.489763401     A.U. after    8 cycles
 SCF Done:  E(RM062X) =  -994.489763367     A.U. after    9 cycles
 Optimization completed.
    -- Stationary point found.
 Normal termination of Gaussian 09 at Wed Feb 20 11:01:14 2019.
 Gaussian 09:  ES64L-G09RevE.01 30-Nov-2015

 ----------------------------------------------------------------------
 # M062X/Gen 6D SCF=Tight INT(grid=ultrafine) OPT IOP(2/17=4) SCRF=(SMD
 ,Solvent=h2o) Freq=Noraman maxdisk=2684354560 geom=check guess=read IO
 P(2/17=4)
 ----------------------------------------------------------------------

 -----------------------------------
 4Ketone_EtO.M062X_6-31pGd_opt_water
 -----------------------------------
 Structure from the checkpoint file:  "4Ketone_EtO.M062X_6-31pGd_opt_water.chk"
 Charge = -1 Multiplicity = 1

 SCF Done:  E(RM062X) =  -994.489763367     A.U. after    1 cycles
 SCF Done:  E(RM062X) =  -994.489763342     A.U. after    9 cycles
 SCF Done:  E(RM062X) =  -994.489763367     A.U. after    8 cycles
 Optimization completed.
    -- Stationary point found.
 Normal termination of Gaussian 09 at Wed Feb 20 11:07:59 2019.

 ----------------------------------------------------------------------
 #N Geom=AllCheck Guess=TCheck SCRF=Check Test GenChk RM062X/ChkBas Fre
 q
 ----------------------------------------------------------------------

 Structure from the checkpoint file:  "4Ketone_EtO.M062X_6-31pGd_opt_water.chk"
 -----------------------------------
 4Ketone_EtO.M062X_6-31pGd_opt_water
 -----------------------------------
 Charge = -1 Multiplicity = 1

                         Standard orientation:
 ---------------------------------------------------------------------
 Center     Atomic      Atomic             Coordinates (Angstroms)
 Number     Number       Type             X           Y           Z
 ---------------------------------------------------------------------
      1          6           0       -5.719183   -2.904665    0.110024
      2          6           0       -4.672238   -1.798901    0.021484
      3          6           0       -3.263460   -2.371059    0.086093
      4          7           0       -2.278149   -1.301936    0.012846
      5          6           0       -0.960278   -1.578709    0.041713
      6          8           0       -0.522689   -2.739790    0.143002
      7          7           0       -0.146967   -0.464062   -0.040340
      8          6           0        1.241647   -0.418125   -0.026457
      9          6           0        2.084052   -1.535324   -0.161901
     10          6           0        1.826133    0.859333    0.111340
     11          6           0        3.199270    1.010942    0.121877
     12          6           0        4.047589   -0.101526   -0.002444
     13          6           0        3.464174   -1.366041   -0.145695
     14          1           0       -6.731696   -2.493088    0.060381
     15          1           0       -5.625797   -3.457745    1.051291
     16          1           0       -5.605069   -3.619091   -0.712885
     17          1           0       -4.810796   -1.083549    0.841589
     18          1           0       -4.793820   -1.240569   -0.914967
     19          1           0       -3.108761   -3.077105   -0.739710
     20          1           0       -3.129835   -2.930751    1.020043
     21          1           0       -2.608914   -0.338308   -0.133930
     22          1           0       -0.622329    0.451517   -0.000208
     23          1           0        1.666252   -2.524230   -0.281474
     24          1           0        1.180059    1.727035    0.212146
     25          1           0        3.628591    2.002299    0.232078
     26          6           0        5.517647    0.087870    0.016292
     27          1           0        4.088306   -2.248343   -0.252764
     28          8           0        6.005024    1.213392    0.127639
     29          6           0        6.411777   -1.117837   -0.102502
     30          1           0        6.218984   -1.644565   -1.042971
     31          1           0        7.454609   -0.799707   -0.069183
     32          1           0        6.216148   -1.820006    0.714571
     33          8           0       -3.387084    1.332089   -0.413954
     34          8           0       -1.373041    2.121056    0.146678
     35          6           0       -2.596732    2.280474   -0.127037
     36          6           0       -3.184815    3.688264   -0.114644
     37          6           0       -2.187580    4.804443    0.160937
     38          1           0       -3.985535    3.689898    0.635160
     39          1           0       -3.679241    3.837827   -1.081698
     40          1           0       -1.714367    4.680993    1.139814
     41          1           0       -2.690286    5.776726    0.148818
     42          1           0       -1.396384    4.823939   -0.595049
 ---------------------------------------------------------------------

 SCF Done:  E(RM062X) =  -994.489763367     A.U. after    1 cycles

 The electronic state is 1-A.
 Alpha  occ. eigenvalues --  -19.64488 -19.61712 -19.60593 -19.60211 -14.78887
 Alpha  occ. eigenvalues --  -14.77149 -10.68466 -10.65003 -10.64997 -10.61244
 Alpha  occ. eigenvalues --  -10.57163 -10.56435 -10.56211 -10.55755 -10.55462
 Alpha  occ. eigenvalues --  -10.55181 -10.53934 -10.53822 -10.53599 -10.52767
 Alpha  occ. eigenvalues --  -10.52579  -1.17434  -1.16935  -1.16453  -1.06664
 Alpha  occ. eigenvalues --   -1.05398  -1.02100  -0.95958  -0.88213  -0.86368
 Alpha  occ. eigenvalues --   -0.85705  -0.85044  -0.82323  -0.77445  -0.72310
 Alpha  occ. eigenvalues --   -0.72136  -0.70840  -0.67840  -0.66309  -0.63656
 Alpha  occ. eigenvalues --   -0.62237  -0.61075  -0.58736  -0.56505  -0.55279
 Alpha  occ. eigenvalues --   -0.53813  -0.53410  -0.53068  -0.52714  -0.51789
 Alpha  occ. eigenvalues --   -0.51432  -0.51271  -0.50710  -0.50664  -0.49146
 Alpha  occ. eigenvalues --   -0.48457  -0.46444  -0.46348  -0.46206  -0.45941
 Alpha  occ. eigenvalues --   -0.44394  -0.44213  -0.43855  -0.42828  -0.41688
 Alpha  occ. eigenvalues --   -0.41361  -0.40654  -0.39551  -0.39469  -0.38984
 Alpha  occ. eigenvalues --   -0.37543  -0.35356  -0.33785  -0.33505  -0.32732
 Alpha  occ. eigenvalues --   -0.32284  -0.31965  -0.31515  -0.26770
 Alpha virt. eigenvalues --   -0.02751   0.01680   0.02051   0.02937   0.03471
 Alpha virt. eigenvalues --    0.03869   0.03965   0.04400   0.04559   0.05439
 Alpha virt. eigenvalues --    0.05664   0.06208   0.06274   0.06516   0.06660

 Mulliken charges:
               1
     1  C   -0.828038
     2  C   -0.346104
     3  C   -0.217581
     4  N   -0.798249
     5  C    0.848988
     6  O   -0.751476
     7  N   -0.652338
     8  C   -0.122224
     9  C   -0.476655
    10  C   -0.221652
    11  C   -0.042232
    12  C    0.686886
    13  C   -0.843337
    14  H    0.222772
    15  H    0.221108
    16  H    0.221237
    17  H    0.236565
    18  H    0.236196
    19  H    0.237376
    20  H    0.237227
    21  H    0.524457
    22  H    0.526498
    23  H    0.269320
    24  H    0.264569
    25  H    0.259754
    26  C    0.657951
    27  H    0.253153
    28  O   -0.591002
    29  C   -0.919544
    30  H    0.270254
    31  H    0.253342
    32  H    0.271125
    33  O   -0.774327
    34  O   -0.793411
    35  C    0.767129
    36  C   -0.500552
    37  C   -0.741059
    38  H    0.246130
    39  H    0.243922
    40  H    0.222944
    41  H    0.218417
    42  H    0.222462
 Sum of Mulliken charges =  -1.00000

 Dipole moment (field-independent basis, Debye):
    X=              1.5559    Y=             -3.4625    Z=             -0.2546  Tot=              3.8045
 Quadrupole moment (field-independent basis, Debye-Ang):
   XX=           -168.3857   YY=           -146.5633   ZZ=           -131.8011
   XY=            -16.9028   XZ=             -6.0477   YZ=              1.6805

  Exact polarizability: 412.454  28.191 313.334   5.591   7.978 199.362
 Approx polarizability: 310.776  16.406 258.448   4.614   6.627 172.315

                      1                      2                      3
                      A                      A                      A
 Frequencies --     12.9714                20.1783                22.2881
 Red. masses --      3.4152                 2.7693                 4.9697
 Frc consts  --      0.0003                 0.0007                 0.0015
 IR Inten    --      3.7946                 6.3765                 0.6789

                      4                      5                      6
                      A                      A                      A
 Frequencies --     33.1487                47.1235                54.2310
 Red. masses --      3.0415                 5.2704                 4.2938
 Frc consts  --      0.0020                 0.0069                 0.0074
 IR Inten    --      0.1822                 2.9286                 4.2670

                      7                      8                      9
                      A                      A                      A
 Frequencies --     55.1906                60.4171                63.9203
 Red. masses --      4.4615                 5.2268                 2.8626
 Frc consts  --      0.0080                 0.0112                 0.0069
 IR Inten    --      0.7105                11.6461                 4.0866

                     10                     11                     12
                      A                      A                      A
 Frequencies --     69.0347                78.2096               100.1837
 Red. masses --      3.9371                 4.2190                 4.1452
 Frc consts  --      0.0111                 0.0152                 0.0245
 IR Inten    --      2.9392                10.9744                19.4655

                     13                     14                     15
                      A                      A                      A
 Frequencies --    124.5920               130.9628               163.3015
 Red. masses --      4.9735                 6.1399                 3.3695
 Frc consts  --      0.0455                 0.0620                 0.0529
 IR Inten    --      6.7772                39.4292                18.0810

                     16                     17                     18
                      A                      A                      A
 Frequencies --    168.6737               173.2159               219.6145
 Red. masses --      4.0190                 1.0376                 6.6290
 Frc consts  --      0.0674                 0.0183                 0.1884
 IR Inten    --     13.3069                 0.2277                 0.2246

                     19                     20                     21
                      A                      A                      A
 Frequencies --    238.1430               242.3257               249.2726
 Red. masses --      3.3956                 1.1847                 1.0885
 Frc consts  --      0.1135                 0.0410                 0.0398
 IR Inten    --      1.2531                 0.1257                 1.4338

                     22                     23                     24
                      A                      A                      A
 Frequencies --    286.9639               294.2932               342.9512
 Red. masses --      5.6222                 4.0597                 3.8406
 Frc consts  --      0.2728                 0.2072                 0.2661
 IR Inten    --      0.3023                11.2271                 0.1531

                     25                     26                     27
                      A                      A                      A
 Frequencies --    348.5362               398.5157               419.0234
 Red. masses --      5.5686                 5.6573                 2.9814
 Frc consts  --      0.3986                 0.5294                 0.3084
 IR Inten    --     21.7276                20.5011                 0.1116

                     28                     29                     30
                      A                      A                      A
 Frequencies --    457.0147               506.4891               518.2543
 Red. masses --      3.4890                 2.8677                 5.0261
 Frc consts  --      0.4294                 0.4334                 0.7954
 IR Inten    --      3.4354                15.1031                24.5145

                     31                     32                     33
                      A                      A                      A
 Frequencies --    519.8262               579.2505               602.9155
 Red. masses --      5.4847                 1.9290                 2.2531
 Frc consts  --      0.8732                 0.3813                 0.4826
 IR Inten    --     31.2825                 1.1049                26.4705

                     34                     35                     36
                      A                      A                      A
 Frequencies --    607.9326               639.6590               650.8290
 Red. masses --      4.4140                 7.0647                 2.8930
 Frc consts  --      0.9612                 1.7031                 0.7220
 IR Inten    --     33.6490                 1.9508                94.9712

                     37                     38                     39
                      A                      A                      A
 Frequencies --    662.9644               733.8734               736.8879
 Red. masses --      1.4063                 4.8305                 3.7551
 Frc consts  --      0.3642                 1.5328                 1.2014
 IR Inten    --    144.7141                23.4324                 1.6538

                     40                     41                     42
                      A                      A                      A
 Frequencies --    759.7650               767.1519               782.7443
 Red. masses --      1.3595                 1.9912                 5.3736
 Frc consts  --      0.4624                 0.6904                 1.9398
 IR Inten    --     38.7017                38.7795                 8.7493

                     43                     44                     45
                      A                      A                      A
 Frequencies --    812.1783               819.6989               850.9834
 Red. masses --      1.3115                 1.4803                 1.2909
 Frc consts  --      0.5097                 0.5860                 0.5508
 IR Inten    --    109.2290                86.0691                 4.6697

                     46                     47                     48
                      A                      A                      A
 Frequencies --    859.6965               875.2370               886.7699
 Red. masses --      1.6430                 4.6739                 3.8709
 Frc consts  --      0.7155                 2.1095                 1.7934
 IR Inten    --    145.4688                27.5228                23.3150

                     49                     50                     51
                      A                      A                      A
 Frequencies --    904.5497               932.5967               983.0372
 Red. masses --      1.1510                 1.6642                 2.0575
 Frc consts  --      0.5549                 0.8528                 1.1715
 IR Inten    --      1.8306                 3.8531                98.6978

                     52                     53                     54
                      A                      A                      A
 Frequencies --    989.1789              1008.7273              1024.1353
 Red. masses --      1.3160                 1.3526                 2.9074
 Frc consts  --      0.7587                 0.8109                 1.7967
 IR Inten    --      0.3203                 0.1131                 2.8721

                     55                     56                     57
                      A                      A                      A
 Frequencies --   1027.6124              1049.7484              1050.3919
 Red. masses --      1.6420                 1.9035                 4.1365
 Frc consts  --      1.0216                 1.2359                 2.6890
 IR Inten    --     14.4627                 6.0422                20.5223

                     58                     59                     60
                      A                      A                      A
 Frequencies --   1083.2081              1108.2632              1109.8313
 Red. masses --      2.5495                 1.7891                 2.3163
 Frc consts  --      1.7625                 1.2947                 1.6810
 IR Inten    --      3.2929                 2.4797                27.6659

                     61                     62                     63
                      A                      A                      A
 Frequencies --   1112.5058              1147.0036              1161.2257
 Red. masses --      2.3414                 1.7042                 1.7389
 Frc consts  --      1.7074                 1.3210                 1.3816
 IR Inten    --     14.7831                16.2139                 9.5586

                     64                     65                     66
                      A                      A                      A
 Frequencies --   1178.2750              1181.1345              1195.6433
 Red. masses --      3.3483                 1.6565                 1.1900
 Frc consts  --      2.7388                 1.3616                 1.0023
 IR Inten    --     19.3802                 1.7352               413.4055

                     67                     68                     69
                      A                      A                      A
 Frequencies --   1279.3169              1289.0740              1291.1611
 Red. masses --      1.1956                 1.1775                 2.0240
 Frc consts  --      1.1529                 1.1528                 1.9880
 IR Inten    --      1.3152                12.3954              1336.0347

                     70                     71                     72
                      A                      A                      A
 Frequencies --   1313.5466              1321.9269              1326.0521
 Red. masses --      2.6319                 1.7497                 1.0739
 Frc consts  --      2.6755                 1.8015                 1.1126
 IR Inten    --    333.8227                16.9537                 0.2646

                     73                     74                     75
                      A                      A                      A
 Frequencies --   1336.6185              1338.7155              1356.8856
 Red. masses --      1.7232                 1.5662                 1.9035
 Frc consts  --      1.8138                 1.6538                 2.0649
 IR Inten    --     73.9328               200.5593               109.9316

                     76                     77                     78
                      A                      A                      A
 Frequencies --   1377.5118              1406.1298              1420.2747
 Red. masses --      4.4423                 1.4868                 1.3163
 Frc consts  --      4.9665                 1.7320                 1.5644
 IR Inten    --    413.4142               160.5855                23.8291

                     79                     80                     81
                      A                      A                      A
 Frequencies --   1420.8415              1430.4295              1455.0024
 Red. masses --      1.2918                 1.6949                 1.3134
 Frc consts  --      1.5365                 2.0433                 1.6382
 IR Inten    --     18.6025                48.8824               156.3512

                     82                     83                     84
                      A                      A                      A
 Frequencies --   1461.3202              1471.4820              1472.7054
 Red. masses --      3.4104                 1.0645                 2.9018
 Frc consts  --      4.2909                 1.3580                 3.7080
 IR Inten    --     64.5775                50.9863               271.5657

                     85                     86                     87
                      A                      A                      A
 Frequencies --   1474.8543              1490.5833              1501.5759
 Red. masses --      1.0453                 1.0592                 1.0403
 Frc consts  --      1.3397                 1.3866                 1.3819
 IR Inten    --     18.8125                 5.1193                11.6366

                     88                     89                     90
                      A                      A                      A
 Frequencies --   1503.0431              1507.9429              1512.9207
 Red. masses --      1.0399                 1.1226                 1.0821
 Frc consts  --      1.3841                 1.5040                 1.4594
 IR Inten    --     11.4567                82.3577                 1.6268

                     91                     92                     93
                      A                      A                      A
 Frequencies --   1531.1417              1556.9520              1566.1036
 Red. masses --      1.0938                 6.6810                 2.7828
 Frc consts  --      1.5108                 9.5421                 4.0213
 IR Inten    --     37.7358               643.8778               172.8672

                     94                     95                     96
                      A                      A                      A
 Frequencies --   1581.6201              1611.6533              1654.8812
 Red. masses --      3.1015                 1.9713                 6.5937
 Frc consts  --      4.5712                 3.0168                10.6394
 IR Inten    --   1503.5033              1727.9641               297.2294

                     97                     98                     99
                      A                      A                      A
 Frequencies --   1680.1503              1717.0400              1727.2836
 Red. masses --      4.8305                 2.0623                 9.7116
 Frc consts  --      8.0342                 3.5824                17.0714
 IR Inten    --    180.2248               597.7679               517.6455

                    100                    101                    102
                      A                      A                      A
 Frequencies --   3066.7803              3075.3922              3076.5500
 Red. masses --      1.0586                 1.0509                 1.0450
 Frc consts  --      5.8660                 5.8560                 5.8278
 IR Inten    --     41.3211                22.3342               113.2376

                    103                    104                    105
                      A                      A                      A
 Frequencies --   3083.2049              3084.6902              3092.8534
 Red. masses --      1.0538                 1.0444                 1.0372
 Frc consts  --      5.9021                 5.8551                 5.8459
 IR Inten    --     53.5574                13.0265                 0.0719

                    106                    107                    108
                      A                      A                      A
 Frequencies --   3097.9232              3119.2340              3120.4949
 Red. masses --      1.1042                 1.1061                 1.1012
 Frc consts  --      6.2435                 6.3407                 6.3180
 IR Inten    --     13.6531                55.7391                 8.6615

                    109                    110                    111
                      A                      A                      A
 Frequencies --   3145.5918              3153.9449              3154.9807
 Red. masses --      1.1038                 1.1024                 1.1022
 Frc consts  --      6.4351                 6.4610                 6.4639
 IR Inten    --     95.3944                53.9608                49.9927

                    112                    113                    114
                      A                      A                      A
 Frequencies --   3159.4983              3163.0798              3201.9235
 Red. masses --      1.1035                 1.1007                 1.1042
 Frc consts  --      6.4900                 6.4886                 6.6697
 IR Inten    --     57.1411                 1.7269                21.0946

                    115                    116                    117
                      A                      A                      A
 Frequencies --   3229.1740              3240.2960              3245.3067
 Red. masses --      1.0902                 1.0913                 1.0946
 Frc consts  --      6.6980                 6.7508                 6.7923
 IR Inten    --      6.0703                20.0861                 0.4612

                    118                    119                    120
                      A                      A                      A
 Frequencies --   3249.4508              3305.8273              3310.6782
 Red. masses --      1.0884                 1.0924                 1.0874
 Frc consts  --      6.7708                 7.0338                 7.0224
 IR Inten    --    838.2542                 3.4184              1757.6366

 - Thermochemistry -
 -------------------
 Temperature   298.150 Kelvin.  Pressure   1.00000 Atm.
 Atom     1 has atomic number  6 and mass  12.00000

 Molecular mass:   293.15013 amu.
 Principal axes and moments of inertia in atomic units:
                           1         2         3
     Eigenvalues --  4646.88745********************
           X            1.00000  -0.00148  -0.00149
           Y            0.00149   1.00000   0.00191
           Z            0.00148  -0.00192   1.00000
 This molecule is an asymmetric top.
 Rotational symmetry number  1.
 Warning -- assumption of classical behavior for rotation
           may cause significant error
 Rotational temperatures (Kelvin)      0.01864     0.00645     0.00482
 Rotational constants (GHZ):           0.38838     0.13438     0.10045
 Zero-point vibrational energy     915490.7 (Joules/Mol)
                                  218.80752 (Kcal/Mol)
 Warning -- explicit consideration of  34 degrees of freedom as
           vibrations may cause significant error
 Vibrational temperatures:     18.66    29.03    32.07    47.69    67.80
          (Kelvin)             78.03    79.41    86.93    91.97    99.33
                              112.53   144.14   179.26   188.43   234.95
                              242.68   249.22   315.98   342.63   348.65
                              358.65   412.88   423.42   493.43   501.47
                              573.37   602.88   657.54   728.72   745.65
                              747.91   833.41   867.46   874.68   920.33
                              936.40   953.86  1055.88  1060.22  1093.13
                             1103.76  1126.19  1168.54  1179.36  1224.37
                             1236.91  1259.27  1275.86  1301.44  1341.80
                             1414.37  1423.21  1451.33  1473.50  1478.50
                             1510.35  1511.28  1558.49  1594.54  1596.80
                             1600.65  1650.28  1670.74  1695.27  1699.39
                             1720.26  1840.65  1854.69  1857.69  1889.90
                             1901.96  1907.89  1923.09  1926.11  1952.25
                             1981.93  2023.10  2043.46  2044.27  2058.07
                             2093.42  2102.51  2117.13  2118.89  2121.98
                             2144.61  2160.43  2162.54  2169.59  2176.75
                             2202.97  2240.10  2253.27  2275.60  2318.81
                             2381.00  2417.36  2470.43  2485.17  4412.41
                             4424.80  4426.46  4436.04  4438.18  4449.92
                             4457.21  4487.88  4489.69  4525.80  4537.82
                             4539.31  4545.81  4550.96  4606.85  4646.06
                             4662.06  4669.27  4675.23  4756.34  4763.32

 Zero-point correction=                           0.348692 (Hartree/Particle)
 Thermal correction to Energy=                    0.372321
 Thermal correction to Enthalpy=                  0.373266
 Thermal correction to Gibbs Free Energy=         0.289623
 Sum of electronic and zero-point Energies=           -994.141071
 Sum of electronic and thermal Energies=              -994.117442
 Sum of electronic and thermal Enthalpies=            -994.116498
 Sum of electronic and thermal Free Energies=         -994.200140

                     E (Thermal)             CV                S
                      KCal/Mol        Cal/Mol-Kelvin    Cal/Mol-Kelvin
 Total                  233.635             82.384            176.040
 Electronic               0.000              0.000              0.000
 Translational            0.889              2.981             42.924
 Rotational               0.889              2.981             35.371
 Vibrational            231.858             76.422             97.746
 Vibration     1          0.593              1.987              7.494
 Vibration     2          0.593              1.986              6.617
 Vibration     3          0.593              1.985              6.419
 Vibration     4          0.594              1.983              5.631
 Vibration     5          0.595              1.979              4.935
 Vibration     6          0.596              1.976              4.657
 Vibration     7          0.596              1.976              4.622
 Vibration     8          0.597              1.973              4.444
 Vibration     9          0.597              1.972              4.332
 Vibration    10          0.598              1.969              4.181
 Vibration    11          0.600              1.964              3.935
 Vibration    12          0.604              1.949              3.451
 Vibration    13          0.610              1.928              3.028
 Vibration    14          0.612              1.922              2.932
 Vibration    15          0.623              1.887              2.511
 Vibration    16          0.625              1.881              2.450
 Vibration    17          0.627              1.875              2.400
 Vibration    18          0.647              1.811              1.962
 Vibration    19          0.656              1.782              1.817
 Vibration    20          0.659              1.775              1.786
 Vibration    21          0.662              1.764              1.736
 Vibration    22          0.684              1.698              1.492
 Vibration    23          0.689              1.684              1.449
 Vibration    24          0.722              1.590              1.198
 Vibration    25          0.726              1.578              1.173
 Vibration    26          0.765              1.473              0.968
 Vibration    27          0.782              1.429              0.895
 Vibration    28          0.815              1.345              0.775
 Vibration    29          0.862              1.236              0.642
 Vibration    30          0.873              1.210              0.614
 Vibration    31          0.875              1.206              0.610
 Vibration    32          0.936              1.076              0.487
 Vibration    33          0.961              1.026              0.445
 Vibration    34          0.967              1.015              0.436

 Normal termination of Gaussian 09 at Wed Feb 20 11:53:17 2019.
