 Gaussian 09, Revision E.01,

 ----------------------------------------------------------------------
 # M062X/Gen 6D SCF=Tight INT(grid=ultrafine) OPT IOP(2/17=4) maxdisk=2
 684354560
 ----------------------------------------------------------------------

 -----------------------------
 4Ketone_EtO.M062X_6-31pGd_opt
 -----------------------------
 Symbolic Z-matrix:
 Charge = -1 Multiplicity = 1

 SCF Done:  E(RM062X) =  -994.403560775     A.U. after   15 cycles
 SCF Done:  E(RM062X) =  -994.405870660     A.U. after   14 cycles
 SCF Done:  E(RM062X) =  -994.406264047     A.U. after   13 cycles
 SCF Done:  E(RM062X) =  -994.406316046     A.U. after   16 cycles
 SCF Done:  E(RM062X) =  -994.405844251     A.U. after   15 cycles
 SCF Done:  E(RM062X) =  -994.406431005     A.U. after   10 cycles
 SCF Done:  E(RM062X) =  -994.406604480     A.U. after   13 cycles
 SCF Done:  E(RM062X) =  -994.406545856     A.U. after   14 cycles
 SCF Done:  E(RM062X) =  -994.406661326     A.U. after   13 cycles
 SCF Done:  E(RM062X) =  -994.406677762     A.U. after   11 cycles
 SCF Done:  E(RM062X) =  -994.406701651     A.U. after   10 cycles
 SCF Done:  E(RM062X) =  -994.406701823     A.U. after   10 cycles
 SCF Done:  E(RM062X) =  -994.406701922     A.U. after    9 cycles
 SCF Done:  E(RM062X) =  -994.406701982     A.U. after   10 cycles
 SCF Done:  E(RM062X) =  -994.406702007     A.U. after    9 cycles
 SCF Done:  E(RM062X) =  -994.406702026     A.U. after    9 cycles
 SCF Done:  E(RM062X) =  -994.406702024     A.U. after   10 cycles
 SCF Done:  E(RM062X) =  -994.406702012     A.U. after    9 cycles
 Optimization completed on the basis of negligible forces.
    -- Stationary point found.
 Normal termination of Gaussian 09 at Thu Feb 21 11:46:20 2019.
 Gaussian 09:  ES64L-G09RevE.01 30-Nov-2015

 ----------------------------------------------------------------------
 # M062X/Gen 6D SCF=Tight INT(grid=ultrafine) OPT IOP(2/17=4) Freq=Nora
 man maxdisk=2684354560 geom=check guess=read IOP(2/17=4)
 ----------------------------------------------------------------------

 -----------------------------
 4Ketone_EtO.M062X_6-31pGd_opt
 -----------------------------
 Structure from the checkpoint file:  "4Ketone_EtO.M062X_6-31pGd_opt.chk"
 Charge = -1 Multiplicity = 1

 SCF Done:  E(RM062X) =  -994.406702012     A.U. after    1 cycles
 Optimization completed.
    -- Stationary point found.
 Normal termination of Gaussian 09 at Thu Feb 21 11:47:05 2019.

 ----------------------------------------------------------------------
 #N Geom=AllCheck Guess=TCheck SCRF=Check Test GenChk RM062X/ChkBas Fre
 q
 ----------------------------------------------------------------------

 Structure from the checkpoint file:  "4Ketone_EtO.M062X_6-31pGd_opt.chk"
 -----------------------------
 4Ketone_EtO.M062X_6-31pGd_opt
 -----------------------------
 Charge = -1 Multiplicity = 1

                         Standard orientation:
 ---------------------------------------------------------------------
 Center     Atomic      Atomic             Coordinates (Angstroms)
 Number     Number       Type             X           Y           Z
 ---------------------------------------------------------------------
      1          6           0       -5.790251   -2.777428    0.047380
      2          6           0       -4.701037   -1.712227    0.148854
      3          6           0       -3.313772   -2.303721   -0.076671
      4          7           0       -2.316181   -1.261472    0.000511
      5          6           0       -1.000350   -1.578083   -0.014014
      6          8           0       -0.584439   -2.739277   -0.043844
      7          7           0       -0.177800   -0.456306    0.014476
      8          6           0        1.196738   -0.425056    0.009603
      9          6           0        2.028929   -1.564111   -0.018521
     10          6           0        1.800962    0.856757    0.036539
     11          6           0        3.174205    0.987423    0.035402
     12          6           0        4.012990   -0.141681    0.007798
     13          6           0        3.407891   -1.406196   -0.019073
     14          1           0       -6.784006   -2.349832    0.216748
     15          1           0       -5.635989   -3.572017    0.787406
     16          1           0       -5.791929   -3.245334   -0.944344
     17          1           0       -4.725934   -1.231817    1.134303
     18          1           0       -4.875615   -0.911579   -0.579209
     19          1           0       -3.273528   -2.807226   -1.055747
     20          1           0       -3.096496   -3.073579    0.675632
     21          1           0       -2.635484   -0.275259   -0.044745
     22          1           0       -0.646091    0.474302    0.036647
     23          1           0        1.577731   -2.546401   -0.038738
     24          1           0        1.152131    1.729516    0.057429
     25          1           0        3.632994    1.971894    0.055974
     26          6           0        5.478543    0.040536    0.007297
     27          1           0        4.022188   -2.303208   -0.040989
     28          8           0        5.999525    1.147226    0.030335
     29          6           0        6.363973   -1.197381   -0.023153
     30          1           0        6.168471   -1.794424   -0.920131
     31          1           0        7.406843   -0.876926   -0.018074
     32          1           0        6.172360   -1.835390    0.846026
     33          8           0       -3.361223    1.344319   -0.129824
     34          8           0       -1.256273    2.104737    0.057603
     35          6           0       -2.502769    2.259517   -0.043836
     36          6           0       -3.042091    3.699534   -0.065460
     37          6           0       -1.969559    4.776466    0.041466
     38          1           0       -3.767940    3.782376    0.753078
     39          1           0       -3.622736    3.810785   -0.989693
     40          1           0       -1.399449    4.662453    0.967962
     41          1           0       -2.411165    5.780600    0.022788
     42          1           0       -1.255626    4.693381   -0.783052
 ---------------------------------------------------------------------

 SCF Done:  E(RM062X) =  -994.406702012     A.U. after    1 cycles

 The electronic state is 1-A.
 Alpha  occ. eigenvalues --  -19.53844 -19.48825 -19.46886 -19.46395 -14.66480
 Alpha  occ. eigenvalues --  -14.64641 -10.55755 -10.54655 -10.51548 -10.49977
 Alpha  occ. eigenvalues --  -10.46945 -10.46599 -10.46358 -10.45531 -10.45278
 Alpha  occ. eigenvalues --  -10.45145 -10.44410 -10.44297 -10.44168 -10.42752
 Alpha  occ. eigenvalues --  -10.42711  -1.06604  -1.04928  -1.02986  -0.93553
 Alpha  occ. eigenvalues --   -0.93096  -0.90245  -0.84997  -0.78410  -0.76679
 Alpha  occ. eigenvalues --   -0.74800  -0.74266  -0.72701  -0.67652  -0.61849
 Alpha  occ. eigenvalues --   -0.61170  -0.59965  -0.57862  -0.54897  -0.53148
 Alpha  occ. eigenvalues --   -0.50429  -0.49929  -0.46705  -0.45672  -0.44860
 Alpha  occ. eigenvalues --   -0.42869  -0.42794  -0.42668  -0.41320  -0.41170
 Alpha  occ. eigenvalues --   -0.40467  -0.40302  -0.39589  -0.38727  -0.38515
 Alpha  occ. eigenvalues --   -0.37644  -0.36754  -0.36448  -0.35902  -0.34797
 Alpha  occ. eigenvalues --   -0.34093  -0.33854  -0.33381  -0.32545  -0.32414
 Alpha  occ. eigenvalues --   -0.30818  -0.30265  -0.29747  -0.29459  -0.28608
 Alpha  occ. eigenvalues --   -0.26011  -0.23019  -0.22220  -0.20831  -0.19826
 Alpha  occ. eigenvalues --   -0.19242  -0.19123  -0.18617  -0.14940
 Alpha virt. eigenvalues --    0.07832   0.09152   0.10271   0.11342   0.12036
 Alpha virt. eigenvalues --    0.12165   0.12434   0.12589   0.13289   0.13325
 Alpha virt. eigenvalues --    0.13659   0.13921   0.14644   0.14954   0.15158

 Mulliken charges:
               1
     1  C   -0.780832
     2  C   -0.329846
     3  C   -0.228772
     4  N   -0.770190
     5  C    0.765524
     6  O   -0.611829
     7  N   -0.650890
     8  C   -0.095282
     9  C   -0.465642
    10  C   -0.228344
    11  C   -0.074328
    12  C    0.735401
    13  C   -0.854203
    14  H    0.197494
    15  H    0.197779
    16  H    0.200048
    17  H    0.227047
    18  H    0.250619
    19  H    0.201599
    20  H    0.214202
    21  H    0.521593
    22  H    0.518876
    23  H    0.264976
    24  H    0.270096
    25  H    0.228637
    26  C    0.634356
    27  H    0.181358
    28  O   -0.478789
    29  C   -0.905655
    30  H    0.227982
    31  H    0.232157
    32  H    0.227864
    33  O   -0.633655
    34  O   -0.675527
    35  C    0.687760
    36  C   -0.510479
    37  C   -0.714541
    38  H    0.208515
    39  H    0.208594
    40  H    0.217203
    41  H    0.171888
    42  H    0.217235
 Sum of Mulliken charges =  -1.00000

 Dipole moment (field-independent basis, Debye):
    X=              0.2403    Y=             -2.6158    Z=              0.0505  Tot=              2.6273
 Quadrupole moment (field-independent basis, Debye-Ang):
   XX=           -188.4335   YY=           -156.6652   ZZ=           -132.4190
   XY=             -9.5263   XZ=             -1.0808   YZ=             -0.3483

  Exact polarizability: 334.267  16.191 223.943   1.303   2.108 132.774
 Approx polarizability: 328.164  18.986 263.575   1.813   2.698 173.498

                      1                      2                      3
                      A                      A                      A
 Frequencies --     15.7241                20.3011                27.2396
 Red. masses --      2.8208                 4.0516                 2.9907
 Frc consts  --      0.0004                 0.0010                 0.0013
 IR Inten    --      0.0564                 0.7946                 1.2052

                      4                      5                      6
                      A                      A                      A
 Frequencies --     38.1077                44.1084                51.8556
 Red. masses --      2.5635                 2.6625                 5.0353
 Frc consts  --      0.0022                 0.0031                 0.0080
 IR Inten    --      2.5058                 0.3312                 0.7516

                      7                      8                      9
                      A                      A                      A
 Frequencies --     57.4751                64.1100                66.2071
 Red. masses --      5.3616                 4.6702                 3.4517
 Frc consts  --      0.0104                 0.0113                 0.0089
 IR Inten    --      0.3101                 2.1464                 1.4604

                     10                     11                     12
                      A                      A                      A
 Frequencies --     83.4319                87.5052               100.5957
 Red. masses --      5.3764                 4.2668                 7.0287
 Frc consts  --      0.0220                 0.0192                 0.0419
 IR Inten    --      5.3414                 0.8561                 7.9904

                     13                     14                     15
                      A                      A                      A
 Frequencies --    129.4256               144.4195               161.9867
 Red. masses --      4.4602                 5.2797                 1.0401
 Frc consts  --      0.0440                 0.0649                 0.0161
 IR Inten    --      0.4350                27.2857                 0.0910

                     16                     17                     18
                      A                      A                      A
 Frequencies --    172.1185               190.1733               218.5650
 Red. masses --      3.8674                 4.3894                 1.1252
 Frc consts  --      0.0675                 0.0935                 0.0317
 IR Inten    --      9.1726                17.3938                 0.4507

                     19                     20                     21
                      A                      A                      A
 Frequencies --    220.8196               240.9555               244.7872
 Red. masses --      6.5354                 1.6018                 1.8902
 Frc consts  --      0.1878                 0.0548                 0.0667
 IR Inten    --      0.1057                 0.1426                 0.6726

                     22                     23                     24
                      A                      A                      A
 Frequencies --    282.1875               302.9703               342.9723
 Red. masses --      5.8972                 4.0703                 3.7423
 Frc consts  --      0.2767                 0.2201                 0.2594
 IR Inten    --      0.1052                14.4866                 1.4510

                     25                     26                     27
                      A                      A                      A
 Frequencies --    348.5963               399.2615               427.4279
 Red. masses --      5.6014                 5.6283                 3.1338
 Frc consts  --      0.4010                 0.5286                 0.3373
 IR Inten    --     11.7859                14.6160                 0.0110

                     28                     29                     30
                      A                      A                      A
 Frequencies --    454.6541               512.3001               519.4082
 Red. masses --      3.5317                 2.9924                 5.6845
 Frc consts  --      0.4301                 0.4627                 0.9036
 IR Inten    --      1.5191                 5.9495                17.3193

                     31                     32                     33
                      A                      A                      A
 Frequencies --    523.2695               582.3296               602.2475
 Red. masses --      5.0061                 1.9736                 2.3272
 Frc consts  --      0.8076                 0.3943                 0.4973
 IR Inten    --     19.2045                 0.5650                13.2517

                     34                     35                     36
                      A                      A                      A
 Frequencies --    606.4674               640.7149               658.0437
 Red. masses --      4.3988                 7.0775                 4.6227
 Frc consts  --      0.9532                 1.7118                 1.1794
 IR Inten    --     18.2090                 1.4349                44.2709

                     37                     38                     39
                      A                      A                      A
 Frequencies --    729.5457               739.5899               748.8740
 Red. masses --      4.7840                 3.9621                 1.1364
 Frc consts  --      1.5002                 1.2769                 0.3755
 IR Inten    --      4.2903                 0.0472                 4.7041

                     40                     41                     42
                      A                      A                      A
 Frequencies --    768.5414               781.9913               818.0413
 Red. masses --      3.3852                 6.3719                 1.3731
 Frc consts  --      1.1780                 2.2957                 0.5414
 IR Inten    --     31.9020                 3.9989                 1.9538

                     43                     44                     45
                      A                      A                      A
 Frequencies --    825.7586               861.6941               874.4075
 Red. masses --      1.3362                 1.3195                 5.0269
 Frc consts  --      0.5368                 0.5773                 2.2645
 IR Inten    --     16.3895                30.2695                57.4150

                     46                     47                     48
                      A                      A                      A
 Frequencies --    883.3290               890.2673               900.3005
 Red. masses --      1.4740                 3.9638                 1.1662
 Frc consts  --      0.6776                 1.8510                 0.5569
 IR Inten    --     19.8168                22.6515                 5.2937

                     49                     50                     51
                      A                      A                      A
 Frequencies --    928.1631               969.7253               970.1980
 Red. masses --      1.7388                 2.0555                 1.1021
 Frc consts  --      0.8826                 1.1388                 0.6112
 IR Inten    --      3.3009                59.8123                93.9778

                     52                     53                     54
                      A                      A                      A
 Frequencies --    993.9699              1021.7274              1025.5698
 Red. masses --      1.2868                 1.6700                 1.3234
 Frc consts  --      0.7491                 1.0272                 0.8201
 IR Inten    --      2.9293                 1.9446                 2.6410

                     55                     56                     57
                      A                      A                      A
 Frequencies --   1026.7542              1047.4760              1049.9137
 Red. masses --      3.0223                 1.8252                 3.8861
 Frc consts  --      1.8773                 1.1799                 2.5239
 IR Inten    --     16.9693                 1.6030                21.8669

                     58                     59                     60
                      A                      A                      A
 Frequencies --   1082.0504              1104.5390              1107.2192
 Red. masses --      2.7099                 2.2510                 1.7767
 Frc consts  --      1.8694                 1.6180                 1.2833
 IR Inten    --      4.8426                11.1505                 0.7212

                     61                     62                     63
                      A                      A                      A
 Frequencies --   1112.8210              1152.1714              1164.8820
 Red. masses --      2.3811                 1.8987                 1.5222
 Frc consts  --      1.7373                 1.4850                 1.2170
 IR Inten    --      5.1888                 9.1681                 7.8359

                     64                     65                     66
                      A                      A                      A
 Frequencies --   1181.5964              1196.5674              1207.5938
 Red. masses --      1.6450                 3.7069                 1.2131
 Frc consts  --      1.3532                 3.1271                 1.0423
 IR Inten    --     10.5347                 9.8237               253.7045

                     67                     68                     69
                      A                      A                      A
 Frequencies --   1272.2276              1286.2425              1305.2751
 Red. masses --      1.1949                 1.1877                 1.7660
 Frc consts  --      1.1395                 1.1577                 1.7728
 IR Inten    --      6.2153                 0.2135               637.3084

                     70                     71                     72
                      A                      A                      A
 Frequencies --   1320.5162              1325.4707              1331.7725
 Red. masses --      2.6841                 1.2479                 1.3820
 Frc consts  --      2.7576                 1.2917                 1.4441
 IR Inten    --    281.3564                40.9412                13.1426

                     73                     74                     75
                      A                      A                      A
 Frequencies --   1334.6931              1346.3612              1372.9380
 Red. masses --      1.6447                 1.8089                 2.2002
 Frc consts  --      1.7262                 1.9320                 2.4436
 IR Inten    --     31.8367               139.6251               221.5185

                     76                     77                     78
                      A                      A                      A
 Frequencies --   1398.0490              1403.1223              1422.0746
 Red. masses --      3.7019                 1.5364                 1.3200
 Frc consts  --      4.2630                 1.7822                 1.5728
 IR Inten    --    349.3670                98.4814                16.0393

                     79                     80                     81
                      A                      A                      A
 Frequencies --   1423.8395              1435.5369              1471.8001
 Red. masses --      1.3369                 1.6429                 3.9311
 Frc consts  --      1.5968                 1.9948                 5.0173
 IR Inten    --     19.1068                 7.4605               338.2289

                     82                     83                     84
                      A                      A                      A
 Frequencies --   1477.7203              1491.0892              1497.8110
 Red. masses --      3.4808                 1.2052                 1.0557
 Frc consts  --      4.4783                 1.5787                 1.3954
 IR Inten    --     55.6392                18.5978                13.8554

                     85                     86                     87
                      A                      A                      A
 Frequencies --   1502.7534              1510.5071              1512.0852
 Red. masses --      1.0479                 1.0718                 1.0398
 Frc consts  --      1.3943                 1.4408                 1.4007
 IR Inten    --      9.6746                 8.6093                 5.0550

                     88                     89                     90
                      A                      A                      A
 Frequencies --   1523.4986              1524.2836              1528.3868
 Red. masses --      1.0988                 1.0412                 1.0673
 Frc consts  --      1.5026                 1.4253                 1.4689
 IR Inten    --     54.3615                 7.6833                 1.6172

                     91                     92                     93
                      A                      A                      A
 Frequencies --   1541.5125              1576.3312              1604.5382
 Red. masses --      1.0840                 2.8902                 3.3928
 Frc consts  --      1.5177                 4.2314                 5.1465
 IR Inten    --      9.9459                18.8677               515.4509

                     94                     95                     96
                      A                      A                      A
 Frequencies --   1634.4816              1674.2694              1689.2529
 Red. masses --      2.3507                 5.8491                 2.3688
 Frc consts  --      3.7001                 9.6603                 3.9826
 IR Inten    --     28.0216               946.1539               334.1289

                     97                     98                     99
                      A                      A                      A
 Frequencies --   1719.4294              1787.7457              1791.0506
 Red. masses --      3.6297                 6.4631                 3.9256
 Frc consts  --      6.3226                12.1703                 7.4194
 IR Inten    --    673.2039               368.3134               287.2129

                    100                    101                    102
                      A                      A                      A
 Frequencies --   3022.5554              3062.7254              3065.7909
 Red. masses --      1.0688                 1.0363                 1.0453
 Frc consts  --      5.7529                 5.7274                 5.7889
 IR Inten    --     86.8488                59.1504               106.9662

                    103                    104                    105
                      A                      A                      A
 Frequencies --   3066.6768              3072.1812              3076.8910
 Red. masses --      1.0938                 1.0892                 1.0645
 Frc consts  --      6.0609                 6.0570                 5.9378
 IR Inten    --    629.2074               182.1863                39.2106

                    106                    107                    108
                      A                      A                      A
 Frequencies --   3084.5609              3084.7588              3107.5077
 Red. masses --      1.0366                 1.0617                 1.1013
 Frc consts  --      5.8109                 5.9523                 6.2660
 IR Inten    --      4.6504                18.9256                16.3460

                    109                    110                    111
                      A                      A                      A
 Frequencies --   3114.4592              3138.0999              3138.2539
 Red. masses --      1.1020                 1.1019                 1.1024
 Frc consts  --      6.2978                 6.3932                 6.3969
 IR Inten    --      1.0161                35.0435                48.1318

                    112                    113                    114
                      A                      A                      A
 Frequencies --   3138.5298              3152.5724              3161.8247
 Red. masses --      1.0953                 1.1004                 1.1022
 Frc consts  --      6.3567                 6.4434                 6.4922
 IR Inten    --     62.2435                 9.8542                36.6334

                    115                    116                    117
                      A                      A                      A
 Frequencies --   3178.7519              3192.4631              3214.9086
 Red. masses --      1.0915                 1.1028                 1.0891
 Frc consts  --      6.4983                 6.6223                 6.6321
 IR Inten    --   1928.9613                19.6369                 3.8942

                    118                    119                    120
                      A                      A                      A
 Frequencies --   3217.6775              3236.0747              3291.2731
 Red. masses --      1.0905                 1.0938                 1.0925
 Frc consts  --      6.6520                 6.7490                 6.9726
 IR Inten    --     37.9162                 1.5376                 5.2924

 - Thermochemistry -
 -------------------
 Temperature   298.150 Kelvin.  Pressure   1.00000 Atm.
 Atom     1 has atomic number  6 and mass  12.00000

 Molecular mass:   293.15013 amu.
 Principal axes and moments of inertia in atomic units:
                           1         2         3
     Eigenvalues --  4544.08658********************
           X            1.00000  -0.00129  -0.00047
           Y            0.00129   1.00000   0.00028
           Z            0.00047  -0.00028   1.00000
 This molecule is an asymmetric top.
 Rotational symmetry number  1.
 Warning -- assumption of classical behavior for rotation
           may cause significant error
 Rotational temperatures (Kelvin)      0.01906     0.00654     0.00489
 Rotational constants (GHZ):           0.39716     0.13622     0.10185
 Zero-point vibrational energy     918751.4 (Joules/Mol)
                                  219.58686 (Kcal/Mol)
 Warning -- explicit consideration of  34 degrees of freedom as
           vibrations may cause significant error
 Vibrational temperatures:     22.62    29.21    39.19    54.83    63.46
          (Kelvin)             74.61    82.69    92.24    95.26   120.04
                              125.90   144.73   186.21   207.79   233.06
                              247.64   273.62   314.47   317.71   346.68
                              352.19   406.00   435.91   493.46   501.55
                              574.45   614.97   654.15   737.08   747.31
                              752.87   837.84   866.50   872.57   921.84
                              946.78  1049.65  1064.10  1077.46  1105.76
                             1125.11  1176.98  1188.08  1239.78  1258.08
                             1270.91  1280.89  1295.33  1335.42  1395.22
                             1395.90  1430.10  1470.04  1475.56  1477.27
                             1507.08  1510.59  1556.83  1589.18  1593.04
                             1601.10  1657.72  1676.00  1700.05  1721.59
                             1737.46  1830.45  1850.61  1878.00  1899.93
                             1907.05  1916.12  1920.32  1937.11  1975.35
                             2011.48  2018.78  2046.05  2048.58  2065.41
                             2117.59  2126.11  2145.34  2155.01  2162.12
                             2173.28  2175.55  2191.97  2193.10  2199.00
                             2217.89  2267.99  2308.57  2351.65  2408.90
                             2430.46  2473.87  2572.16  2576.92  4348.78
                             4406.57  4410.98  4412.26  4420.18  4426.95
                             4437.99  4438.27  4471.00  4481.01  4515.02
                             4515.24  4515.64  4535.84  4549.15  4573.51
                             4593.24  4625.53  4629.51  4655.98  4735.40

 Zero-point correction=                           0.349934 (Hartree/Particle)
 Thermal correction to Energy=                    0.373324
 Thermal correction to Enthalpy=                  0.374269
 Thermal correction to Gibbs Free Energy=         0.291773
 Sum of electronic and zero-point Energies=           -994.056768
 Sum of electronic and thermal Energies=              -994.033378
 Sum of electronic and thermal Enthalpies=            -994.032433
 Sum of electronic and thermal Free Energies=         -994.114929

                     E (Thermal)             CV                S
                      KCal/Mol        Cal/Mol-Kelvin    Cal/Mol-Kelvin
 Total                  234.265             81.605            173.626
 Electronic               0.000              0.000              0.000
 Translational            0.889              2.981             42.924
 Rotational               0.889              2.981             35.321
 Vibrational            232.487             75.643             95.380
 Vibration     1          0.593              1.986              7.112
 Vibration     2          0.593              1.986              6.605
 Vibration     3          0.593              1.984              6.021
 Vibration     4          0.594              1.982              5.355
 Vibration     5          0.595              1.980              5.065
 Vibration     6          0.596              1.977              4.745
 Vibration     7          0.596              1.975              4.542
 Vibration     8          0.597              1.971              4.327
 Vibration     9          0.598              1.970              4.263
 Vibration    10          0.600              1.961              3.808
 Vibration    11          0.601              1.958              3.715
 Vibration    12          0.604              1.949              3.443
 Vibration    13          0.612              1.924              2.955
 Vibration    14          0.616              1.909              2.744
 Vibration    15          0.622              1.889              2.526
 Vibration    16          0.626              1.877              2.412
 Vibration    17          0.633              1.853              2.226
 Vibration    18          0.646              1.813              1.971
 Vibration    19          0.648              1.809              1.952
 Vibration    20          0.658              1.778              1.796
 Vibration    21          0.660              1.771              1.768
 Vibration    22          0.681              1.707              1.520
 Vibration    23          0.694              1.668              1.400
 Vibration    24          0.722              1.590              1.198
 Vibration    25          0.726              1.578              1.173
 Vibration    26          0.765              1.472              0.965
 Vibration    27          0.789              1.411              0.867
 Vibration    28          0.813              1.351              0.782
 Vibration    29          0.867              1.223              0.628
 Vibration    30          0.874              1.207              0.611
 Vibration    31          0.878              1.198              0.602
 Vibration    32          0.939              1.070              0.481
 Vibration    33          0.961              1.027              0.446
 Vibration    34          0.965              1.018              0.439

 Optimization completed on the basis of negligible forces.
    -- Stationary point found.
 Normal termination of Gaussian 09 at Thu Feb 21 12:33:39 2019.
