 Gaussian 09, Revision E.01,

 ----------------------------------------------------------------------
 # M062X/Gen 6D SCF=Tight INT(grid=ultrafine) OPT IOP(2/17=4) SCRF=(SMD
 ,Solvent=h2o)
 ----------------------------------------------------------------------

 --------------------------------------
 triclofen_a2cl.M062X_6-31pGd_opt_water
 --------------------------------------
 Symbolic Z-matrix:
 Charge = -1 Multiplicity = 1

 SCF Done:  E(RM062X) =  -2065.32401775     A.U. after   15 cycles
 SCF Done:  E(RM062X) =  -2065.34331367     A.U. after   14 cycles
 SCF Done:  E(RM062X) =  -2065.34415732     A.U. after   15 cycles
 SCF Done:  E(RM062X) =  -2065.34470784     A.U. after   13 cycles
 SCF Done:  E(RM062X) =  -2065.34477596     A.U. after   12 cycles
 SCF Done:  E(RM062X) =  -2065.34478625     A.U. after   12 cycles
 SCF Done:  E(RM062X) =  -2065.34486859     A.U. after   15 cycles
 SCF Done:  E(RM062X) =  -2065.34491985     A.U. after   14 cycles
 SCF Done:  E(RM062X) =  -2065.34496575     A.U. after   14 cycles
 SCF Done:  E(RM062X) =  -2065.31183245     A.U. after   17 cycles
 SCF Done:  E(RM062X) =  -2065.34545187     A.U. after   13 cycles
 SCF Done:  E(RM062X) =  -2065.34545701     A.U. after   12 cycles
 SCF Done:  E(RM062X) =  -2065.34545897     A.U. after   13 cycles
 SCF Done:  E(RM062X) =  -2065.34545930     A.U. after   11 cycles
 SCF Done:  E(RM062X) =  -2065.34546006     A.U. after   11 cycles
 SCF Done:  E(RM062X) =  -2065.34546086     A.U. after   11 cycles
 SCF Done:  E(RM062X) =  -2065.34546200     A.U. after   11 cycles
 SCF Done:  E(RM062X) =  -2065.34546275     A.U. after   11 cycles
 SCF Done:  E(RM062X) =  -2065.34546297     A.U. after   10 cycles
 Optimization completed.
    -- Stationary point found.
 Normal termination of Gaussian 09 at Mon Oct  8 23:44:50 2018.
 Gaussian 09:  ES64L-G09RevE.01 30-Nov-2015

 ----------------------------------------------------------------------
 # M062X/Gen 6D SCF=Tight INT(grid=ultrafine) Freq=Noraman IOP(2/17=4)
 SCRF=(SMD,Solvent=h2o) geom=check guess=read IOP(2/17=4)
 ----------------------------------------------------------------------

 --------------------------------------
 triclofen_a2cl.M062X_6-31pGd_opt_water
 --------------------------------------
 Structure from the checkpoint file:  "triclofen_a2cl.M062X_6-31pGd_opt_water.chk"
 Charge = -1 Multiplicity = 1

                         Standard orientation:
 ---------------------------------------------------------------------
 Center     Atomic      Atomic             Coordinates (Angstroms)
 Number     Number       Type             X           Y           Z
 ---------------------------------------------------------------------
      1          6           0        4.502067   -0.725545    0.130485
      2          6           0        4.214087    0.610905   -0.146140
      3          6           0        2.910344    1.084069   -0.082057
      4          6           0        1.833020    0.238708    0.255451
      5          6           0        2.147013   -1.110419    0.541802
      6          6           0        3.453814   -1.575348    0.479624
      7         17           0        5.484234    1.727365   -0.580455
      8         17           0        6.129069   -1.348681    0.061213
      9          7           0        0.581523    0.815851    0.364300
     10          6           0       -0.505252    0.087563    0.100712
     11          8           0       -0.586106   -1.063422   -0.406289
     12          7           0       -1.682724    0.777137    0.417690
     13          1           0        2.712890    2.129911   -0.297053
     14          1           0        1.360411   -1.794964    0.834687
     15          1           0        3.671385   -2.613932    0.711753
     16          1           0       -1.529431    1.696083    0.816264
     17          6           0       -3.012886    0.427222    0.213579
     18          6           0       -3.452485   -0.778543   -0.358878
     19          6           0       -4.815843   -1.027121   -0.515382
     20          6           0       -5.749739   -0.084962   -0.106115
     21          6           0       -5.339153    1.117100    0.464028
     22          6           0       -3.982784    1.364867    0.619363
     23         17           0       -7.461760   -0.408442   -0.308584
     24          1           0       -2.738296   -1.521031   -0.683177
     25          1           0       -5.140955   -1.962893   -0.960178
     26          1           0       -6.068060    1.855094    0.784495
     27          1           0       -3.660117    2.303096    1.063803
 ---------------------------------------------------------------------

 SCF Done:  E(RM062X) =  -2065.34546297     A.U. after    2 cycles

 The electronic state is 1-A.
 Alpha  occ. eigenvalues -- -102.67758-102.67633-102.67109 -19.59789 -14.78067
 Alpha  occ. eigenvalues --  -14.71566 -10.65890 -10.62252 -10.61360 -10.60782
 Alpha  occ. eigenvalues --  -10.60404 -10.58870 -10.56390 -10.56377 -10.56267
 Alpha  occ. eigenvalues --  -10.55633 -10.55388 -10.55174 -10.54791  -9.82405
 Alpha  occ. eigenvalues --   -9.82269  -9.81772  -7.54805  -7.54671  -7.54162
 Alpha  occ. eigenvalues --   -7.54156  -7.54130  -7.54017  -7.54001  -7.53523
 Alpha  occ. eigenvalues --   -7.53516  -1.14638  -1.03795  -1.01903  -0.99366
 Alpha  occ. eigenvalues --   -0.98446  -0.95597  -0.92906  -0.91084  -0.85219
 Alpha  occ. eigenvalues --   -0.83834  -0.82620  -0.79704  -0.71797  -0.70350
 Alpha  occ. eigenvalues --   -0.69678  -0.67001  -0.63736  -0.60744  -0.58528
 Alpha  occ. eigenvalues --   -0.55932  -0.55302  -0.54162  -0.53015  -0.51381
 Alpha  occ. eigenvalues --   -0.50845  -0.50406  -0.49568  -0.49115  -0.48705
 Alpha  occ. eigenvalues --   -0.48541  -0.46508  -0.45317  -0.43892  -0.42639
 Alpha  occ. eigenvalues --   -0.41990  -0.41656  -0.41399  -0.40403  -0.39087
 Alpha  occ. eigenvalues --   -0.37782  -0.37292  -0.35791  -0.35469  -0.33425
 Alpha  occ. eigenvalues --   -0.31602  -0.30680  -0.30023  -0.26948  -0.23482
 Alpha virt. eigenvalues --    0.00767   0.01263   0.01362   0.01473   0.01795
 Alpha virt. eigenvalues --    0.02390   0.03092   0.03310   0.03651   0.04308
 Alpha virt. eigenvalues --    0.04586   0.04830   0.05708   0.06226   0.06643

 Mulliken charges:
               1
     1  C   -0.353612
     2  C   -0.084282
     3  C   -0.505990
     4  C   -0.006786
     5  C    0.288662
     6  C   -0.616371
     7  Cl   0.159256
     8  Cl   0.171371
     9  N   -0.588051
    10  C    0.942357
    11  O   -0.830352
    12  N   -0.643419
    13  H    0.255704
    14  H    0.249461
    15  H    0.263477
    16  H    0.482226
    17  C   -0.408916
    18  C    0.895756
    19  C   -0.711632
    20  C    0.290806
    21  C   -0.493269
    22  C   -0.946802
    23  Cl   0.137906
    24  H    0.272272
    25  H    0.261288
    26  H    0.264576
    27  H    0.254362
 Sum of Mulliken charges =  -1.00000

 Dipole moment (field-independent basis, Debye):
    X=             -3.0886    Y=              1.9509    Z=              1.9139  Tot=              4.1242
 Quadrupole moment (field-independent basis, Debye-Ang):
   XX=           -204.6524   YY=           -129.6958   ZZ=           -138.1054
   XY=            -10.9332   XZ=             -2.6809   YZ=              0.9555

  Exact polarizability: 483.360   1.561 291.941  -4.474  13.530 178.862
 Approx polarizability: 370.631   2.198 260.885  -4.731  12.080 163.543

                      1                      2                      3
                      A                      A                      A
 Frequencies --      9.3227                23.1550                38.9274
 Red. masses --     13.2081                 4.8778                10.4946
 Frc consts  --      0.0007                 0.0015                 0.0094
 IR Inten    --      0.5199                 1.9684                 0.9200

                      4                      5                      6
                      A                      A                      A
 Frequencies --     65.4972                78.8377               109.6105
 Red. masses --      8.9035                11.2089                 8.3123
 Frc consts  --      0.0225                 0.0410                 0.0588
 IR Inten    --      7.7150                 6.4166                 3.3451

                      7                      8                      9
                      A                      A                      A
 Frequencies --    135.9499               163.3538               170.7450
 Red. masses --      8.6386                 7.7909                12.5061
 Frc consts  --      0.0941                 0.1225                 0.2148
 IR Inten    --      1.1675                 6.8626                 2.3432

                     10                     11                     12
                      A                      A                      A
 Frequencies --    204.6907               210.3613               263.5898
 Red. masses --      8.5192                22.0649                10.4614
 Frc consts  --      0.2103                 0.5753                 0.4283
 IR Inten    --      2.5177                 0.4020                 8.0307

                     13                     14                     15
                      A                      A                      A
 Frequencies --    302.2781               326.7022               334.8215
 Red. masses --     11.0872                 6.8498                 7.4427
 Frc consts  --      0.5969                 0.4308                 0.4916
 IR Inten    --     18.4580                 3.5366                 4.0148

                     16                     17                     18
                      A                      A                      A
 Frequencies --    363.6707               393.4101               422.6133
 Red. masses --      7.1929                 7.7947                 3.0654
 Frc consts  --      0.5605                 0.7108                 0.3226
 IR Inten    --      6.5256                 1.9359                 0.1210

                     19                     20                     21
                      A                      A                      A
 Frequencies --    437.1201               454.5008               478.6166
 Red. masses --     10.7608                 3.2631                 6.0662
 Frc consts  --      1.2114                 0.3971                 0.8187
 IR Inten    --     78.1829                 6.6958                 2.4408

                     22                     23                     24
                      A                      A                      A
 Frequencies --    510.1870               513.4527               564.2703
 Red. masses --      8.6274                 2.6182                 1.0968
 Frc consts  --      1.3231                 0.4067                 0.2058
 IR Inten    --     16.3756                26.5596               179.7388

                     25                     26                     27
                      A                      A                      A
 Frequencies --    599.2618               638.0728               646.6604
 Red. masses --      4.8946                 7.1992                 7.8074
 Frc consts  --      1.0356                 1.7269                 1.9236
 IR Inten    --     14.9545                 9.2765                63.9309

                     28                     29                     30
                      A                      A                      A
 Frequencies --    682.2900               694.8950               711.1791
 Red. masses --      6.3295                 3.7201                 3.6953
 Frc consts  --      1.7360                 1.0584                 1.1012
 IR Inten    --      9.1942                13.9359                 2.3537

                     31                     32                     33
                      A                      A                      A
 Frequencies --    735.4432               771.6839               805.5030
 Red. masses --      7.9732                 8.4707                 4.5840
 Frc consts  --      2.5409                 2.9720                 1.7524
 IR Inten    --     22.4847               116.8246                39.6695

                     34                     35                     36
                      A                      A                      A
 Frequencies --    838.7288               842.1258               849.5272
 Red. masses --      1.2744                 1.6222                 1.6345
 Frc consts  --      0.5282                 0.6778                 0.6950
 IR Inten    --      2.4940                37.5231               133.3850

                     37                     38                     39
                      A                      A                      A
 Frequencies --    867.6221               890.0926               928.1112
 Red. masses --      5.6219                 1.6688                 6.3210
 Frc consts  --      2.4934                 0.7790                 3.2080
 IR Inten    --      8.5186                59.4460                49.1862

                     40                     41                     42
                      A                      A                      A
 Frequencies --    970.3116               978.5276               991.8454
 Red. masses --      1.3040                 1.3213                 1.3341
 Frc consts  --      0.7233                 0.7454                 0.7733
 IR Inten    --      0.3494                 1.6353                 0.0939

                     43                     44                     45
                      A                      A                      A
 Frequencies --   1017.8320              1025.6056              1060.9517
 Red. masses --      3.8795                 4.4778                 5.6204
 Frc consts  --      2.3680                 2.7751                 3.7274
 IR Inten    --      4.2346                46.6505               210.6623

                     46                     47                     48
                      A                      A                      A
 Frequencies --   1125.1516              1143.9194              1162.4829
 Red. masses --      2.2936                 1.3523                 1.5062
 Frc consts  --      1.7108                 1.0426                 1.1992
 IR Inten    --     45.9303                21.4126                29.5009

                     49                     50                     51
                      A                      A                      A
 Frequencies --   1165.0166              1201.3854              1255.0162
 Red. masses --      1.6391                 1.1239                 2.5525
 Frc consts  --      1.3107                 0.9558                 2.3687
 IR Inten    --     91.2583                66.3441               194.1121

                     52                     53                     54
                      A                      A                      A
 Frequencies --   1268.1348              1283.7008              1308.5033
 Red. masses --      2.2578                 1.9853                 8.6946
 Frc consts  --      2.1393                 1.9275                 8.7711
 IR Inten    --    648.4030                 5.1020                38.4664

                     55                     56                     57
                      A                      A                      A
 Frequencies --   1324.1343              1348.1498              1401.3691
 Red. masses --      1.4213                 5.5270                 4.7615
 Frc consts  --      1.4683                 5.9185                 5.5094
 IR Inten    --      2.0666              1451.8148              1526.4465

                     58                     59                     60
                      A                      A                      A
 Frequencies --   1428.3296              1444.7504              1512.0841
 Red. masses --      3.2200                 4.0918                 2.6023
 Frc consts  --      3.8705                 5.0321                 3.5056
 IR Inten    --    379.2770               107.9635              1391.9443

                     61                     62                     63
                      A                      A                      A
 Frequencies --   1525.4605              1546.7980              1596.7638
 Red. masses --      2.8074                 3.0234                 4.3149
 Frc consts  --      3.8491                 4.2619                 6.4819
 IR Inten    --    155.0115               121.4254              1668.3866

                     64                     65                     66
                      A                      A                      A
 Frequencies --   1613.2699              1656.4190              1666.1472
 Red. masses --      8.0110                 6.5337                 5.9385
 Frc consts  --     12.2843                10.5620                 9.7130
 IR Inten    --    114.1066                61.7298                81.5207

                     67                     68                     69
                      A                      A                      A
 Frequencies --   1677.1881              3224.0681              3235.9093
 Red. masses --      6.5955                 1.0903                 1.0915
 Frc consts  --     10.9310                 6.6772                 6.7340
 IR Inten    --    108.0451                 8.4325                 3.7179

                     70                     71                     72
                      A                      A                      A
 Frequencies --   3240.6482              3240.9968              3245.7626
 Red. masses --      1.0926                 1.0922                 1.0953
 Frc consts  --      6.7606                 6.7591                 6.7983
 IR Inten    --      2.0209                 0.6461                 1.3798

                     73                     74                     75
                      A                      A                      A
 Frequencies --   3269.1605              3304.1314              3624.3339
 Red. masses --      1.0929                 1.0919                 1.0777
 Frc consts  --      6.8821                 7.0236                 8.3409
 IR Inten    --      1.7098                 5.2626               100.8648

 - Thermochemistry -
 -------------------
 Temperature   298.150 Kelvin.  Pressure   1.00000 Atm.
 Atom     1 has atomic number  6 and mass  12.00000

 Molecular mass:   312.97022 amu.
 Principal axes and moments of inertia in atomic units:
                           1         2         3
     Eigenvalues --  1498.54875********************
           X            1.00000  -0.00288  -0.00001
           Y            0.00288   0.99987   0.01578
           Z           -0.00003  -0.01578   0.99988
 This molecule is an asymmetric top.
 Rotational symmetry number  1.
 Warning -- assumption of classical behavior for rotation
           may cause significant error
 Rotational temperatures (Kelvin)      0.05780     0.00358     0.00341
 Rotational constants (GHZ):           1.20433     0.07456     0.07115
 Zero-point vibrational energy     485451.4 (Joules/Mol)
                                  116.02567 (Kcal/Mol)
 Warning -- explicit consideration of  25 degrees of freedom as
           vibrations may cause significant error
 Vibrational temperatures:     13.41    33.31    56.01    94.24   113.43
          (Kelvin)            157.70   195.60   235.03   245.66   294.50
                              302.66   379.25   434.91   470.05   481.73
                              523.24   566.03   608.05   628.92   653.92
                              688.62   734.04   738.74   811.86   862.20
                              918.04   930.40   981.66   999.80  1023.23
                             1058.14  1110.28  1158.94  1206.74  1211.63
                             1222.28  1248.31  1280.64  1335.34  1396.06
                             1407.88  1427.04  1464.43  1475.62  1526.47
                             1618.84  1645.84  1672.55  1676.20  1728.52
                             1805.69  1824.56  1846.96  1882.64  1905.13
                             1939.68  2016.26  2055.05  2078.67  2175.55
                             2194.79  2225.49  2297.38  2321.13  2383.21
                             2397.21  2413.10  4638.71  4655.75  4662.56
                             4663.07  4669.92  4703.59  4753.90  5214.60

 Zero-point correction=                           0.184899 (Hartree/Particle)
 Thermal correction to Energy=                    0.201522
 Thermal correction to Enthalpy=                  0.202466
 Thermal correction to Gibbs Free Energy=         0.136412
 Sum of electronic and zero-point Energies=          -2065.160564
 Sum of electronic and thermal Energies=             -2065.143941
 Sum of electronic and thermal Enthalpies=           -2065.142997
 Sum of electronic and thermal Free Energies=        -2065.209051

                     E (Thermal)             CV                S
                      KCal/Mol        Cal/Mol-Kelvin    Cal/Mol-Kelvin
 Total                  126.457             61.629            139.023
 Electronic               0.000              0.000              0.000
 Translational            0.889              2.981             43.119
 Rotational               0.889              2.981             35.174
 Vibrational            124.680             55.667             60.729
 Vibration     1          0.593              1.987              8.150
 Vibration     2          0.593              1.985              6.343
 Vibration     3          0.594              1.981              5.313
 Vibration     4          0.597              1.971              4.284
 Vibration     5          0.600              1.963              3.920
 Vibration     6          0.606              1.942              3.276
 Vibration     7          0.614              1.917              2.860
 Vibration     8          0.623              1.887              2.511
 Vibration     9          0.626              1.878              2.427
 Vibration    10          0.640              1.833              2.091
 Vibration    11          0.643              1.825              2.041
 Vibration    12          0.670              1.740              1.638
 Vibration    13          0.694              1.669              1.404
 Vibration    14          0.710              1.622              1.276
 Vibration    15          0.716              1.606              1.237
 Vibration    16          0.737              1.547              1.106
 Vibration    17          0.761              1.484              0.987
 Vibration    18          0.785              1.421              0.883
 Vibration    19          0.797              1.389              0.836
 Vibration    20          0.813              1.351              0.782
 Vibration    21          0.835              1.297              0.714
 Vibration    22          0.865              1.227              0.633
 Vibration    23          0.869              1.220              0.625
 Vibration    24          0.920              1.109              0.515
 Vibration    25          0.957              1.033              0.451

 Optimization completed.
    -- Stationary point found.
 Normal termination of Gaussian 09 at Tue Oct  9 04:06:28 2018.
