 Gaussian 09, Revision E.01,

 ----------------------------------------------------------------------
 # M062X/Gen 6D SCF=Tight INT(grid=ultrafine) OPT IOP(2/17=4) Freq=Nora
 man maxdisk=2147483648
 ----------------------------------------------------------------------

 -------------------------
 aryl_urea_nitro.M062X.opt
 -------------------------
 Symbolic Z-matrix:
 Charge =  0 Multiplicity = 1

 SCF Done:  E(RM062X) =  -778.404547809     A.U. after   18 cycles
 SCF Done:  E(RM062X) =  -778.442023017     A.U. after   16 cycles
 SCF Done:  E(RM062X) =  -778.445940996     A.U. after   16 cycles
 SCF Done:  E(RM062X) =  -778.448161971     A.U. after   16 cycles
 SCF Done:  E(RM062X) =  -778.447702913     A.U. after   16 cycles
 SCF Done:  E(RM062X) =  -778.448524169     A.U. after   13 cycles
 SCF Done:  E(RM062X) =  -778.448666776     A.U. after   17 cycles
 SCF Done:  E(RM062X) =  -778.449352695     A.U. after   15 cycles
 SCF Done:  E(RM062X) =  -778.449442755     A.U. after   14 cycles
 SCF Done:  E(RM062X) =  -778.449485827     A.U. after   14 cycles
 SCF Done:  E(RM062X) =  -778.449863824     A.U. after   14 cycles
 SCF Done:  E(RM062X) =  -778.449927451     A.U. after   13 cycles
 SCF Done:  E(RM062X) =  -778.449938403     A.U. after   14 cycles
 SCF Done:  E(RM062X) =  -778.449945100     A.U. after   13 cycles
 SCF Done:  E(RM062X) =  -778.449945776     A.U. after   11 cycles
 SCF Done:  E(RM062X) =  -778.449945874     A.U. after   11 cycles
 SCF Done:  E(RM062X) =  -778.449945905     A.U. after   10 cycles
 Optimization completed.
    -- Stationary point found.
 Normal termination of Gaussian 09 at Mon Jul 16 12:42:07 2018.

 ----------------------------------------------------------------------
 #N Geom=AllCheck Guess=TCheck SCRF=Check Test GenChk RM062X/ChkBas Fre
 q
 ----------------------------------------------------------------------

 Structure from the checkpoint file:  "aryl_urea_nitro.M062X.opt.chk"
 -------------------------
 aryl_urea_nitro.M062X.opt
 -------------------------
 Charge =  0 Multiplicity = 1

 SCF Done:  E(RM062X) =  -778.449945905     A.U. after    1 cycles
 Normal termination of Gaussian 09 at Mon Jul 16 13:17:52 2018.
 Gaussian 09:  ES64L-G09RevE.01 30-Nov-2015

 ----------------------------------------------------------------------
 # M062X/Gen 6D SCF=Tight INT(grid=ultrafine) OPT IOP(2/17=4) Freq=Nora
 man geom=check guess=read IOP(2/17=4) maxdisk=2147483648
 ----------------------------------------------------------------------

 -------------------------
 aryl_urea_nitro.M062X.opt
 -------------------------
 Structure from the checkpoint file:  "aryl_urea_nitro.M062X.opt.chk"
 Charge =  0 Multiplicity = 1

 SCF Done:  E(RM062X) =  -778.449945905     A.U. after    1 cycles
 Optimization completed.
    -- Stationary point found.
 Normal termination of Gaussian 09 at Mon Jul 16 13:18:34 2018.

 ----------------------------------------------------------------------
 #N Geom=AllCheck Guess=TCheck SCRF=Check Test GenChk RM062X/ChkBas Fre
 q
 ----------------------------------------------------------------------

 Structure from the checkpoint file:  "aryl_urea_nitro.M062X.opt.chk"
 -------------------------
 aryl_urea_nitro.M062X.opt
 -------------------------
 Charge =  0 Multiplicity = 1

                         Standard orientation:
 ---------------------------------------------------------------------
 Center     Atomic      Atomic             Coordinates (Angstroms)
 Number     Number       Type             X           Y           Z
 ---------------------------------------------------------------------
      1          6           0        3.316165    0.007794   -0.003738
      2          6           0        2.838649    1.313660    0.030923
      3          6           0        1.470291    1.518637    0.025270
      4          6           0        0.576538    0.433436   -0.014429
      5          6           0        1.080863   -0.877141   -0.046832
      6          6           0        2.454637   -1.081435   -0.042351
      7          7           0       -0.785108    0.738202   -0.036890
      8          6           0       -1.856909   -0.149421    0.027052
      9          7           0       -3.079166    0.472139   -0.046238
     10          8           0       -1.732107   -1.352814    0.165046
     11          6           0       -4.284332   -0.346031   -0.110476
     12          6           0       -5.525519    0.517071    0.075348
     13          6           0       -6.802260   -0.318481    0.015200
     14          1           0        1.083028    2.534246    0.050504
     15          1           0        0.400964   -1.716705   -0.067989
     16          1           0       -1.006966    1.723109    0.028186
     17          1           0       -3.128160    1.376603   -0.498986
     18          1           0       -4.213303   -1.095211    0.682661
     19          1           0       -4.332770   -0.890365   -1.064251
     20          1           0       -5.556666    1.289855   -0.705497
     21          1           0       -5.456918    1.037779    1.037798
     22          1           0       -6.893592   -0.829543   -0.949070
     23          1           0       -7.689376    0.306461    0.149171
     24          1           0       -6.806935   -1.081611    0.800478
     25          1           0        3.534432    2.143825    0.061863
     26          1           0        2.863097   -2.085093   -0.067166
     27          7           0        4.762325   -0.220558    0.001681
     28          8           0        5.155419   -1.374384   -0.029833
     29          8           0        5.490197    0.758403    0.036864
 ---------------------------------------------------------------------

 SCF Done:  E(RM062X) =  -778.449945905     A.U. after    1 cycles

 The electronic state is 1-A.
 Alpha  occ. eigenvalues --  -19.67962 -19.67932 -19.63325 -15.01257 -14.82844
 Alpha  occ. eigenvalues --  -14.80717 -10.70708 -10.63607 -10.61350 -10.59718
 Alpha  occ. eigenvalues --  -10.58873 -10.58485 -10.58452 -10.57231 -10.56821
 Alpha  occ. eigenvalues --  -10.55420  -1.36661  -1.20091  -1.18004  -1.08524
 Alpha  occ. eigenvalues --   -1.05139  -0.99491  -0.91398  -0.89488  -0.87698
 Alpha  occ. eigenvalues --   -0.81787  -0.78033  -0.74121  -0.70926  -0.70530
 Alpha  occ. eigenvalues --   -0.68095  -0.65620  -0.65123  -0.62821  -0.62296
 Alpha  occ. eigenvalues --   -0.59885  -0.57832  -0.55754  -0.54553  -0.54113
 Alpha  occ. eigenvalues --   -0.53908  -0.52550  -0.51221  -0.49661  -0.49039
 Alpha  occ. eigenvalues --   -0.48151  -0.46517  -0.44376  -0.43717  -0.42466
 Alpha  occ. eigenvalues --   -0.41818  -0.40200  -0.38879  -0.37678  -0.37673
 Alpha  occ. eigenvalues --   -0.36646  -0.34262  -0.33526  -0.29622
 Alpha virt. eigenvalues --   -0.05157  -0.01494  -0.00270   0.01467   0.02243
 Alpha virt. eigenvalues --    0.02599   0.03125   0.03251   0.03487   0.04564
 Alpha virt. eigenvalues --    0.04726   0.05404   0.06009   0.06344   0.07004

 Mulliken charges:
               1
     1  C   -0.254672
     2  C    0.132398
     3  C   -1.464100
     4  C    0.478496
     5  C    0.773770
     6  C   -0.398840
     7  N   -0.663962
     8  C    0.780474
     9  N   -0.583389
    10  O   -0.562691
    11  C   -0.177817
    12  C   -0.310268
    13  C   -0.718210
    14  H    0.201942
    15  H    0.279368
    16  H    0.414023
    17  H    0.386527
    18  H    0.244084
    19  H    0.218203
    20  H    0.203014
    21  H    0.227659
    22  H    0.215003
    23  H    0.215983
    24  H    0.216494
    25  H    0.260889
    26  H    0.263057
    27  N   -0.283326
    28  O   -0.039750
    29  O   -0.054359
 Sum of Mulliken charges =  -0.00000

 Dipole moment (field-independent basis, Debye):
    X=             -7.7998    Y=              4.2769    Z=             -0.7901  Tot=              8.9305
 Quadrupole moment (field-independent basis, Debye-Ang):
   XX=           -115.9495   YY=            -90.6704   ZZ=            -96.5085
   XY=             -3.2721   XZ=              2.2380   YZ=             -0.4618

  Exact polarizability: 238.360  -2.232 146.936   1.077   0.744  88.443
 Approx polarizability: 228.719  -2.546 211.324   1.203   0.608 114.676

                      1                      2                      3
                      A                      A                      A
 Frequencies --     20.1584                31.6329                55.9828
 Red. masses --      4.4805                 2.9691                 3.9306
 Frc consts  --      0.0011                 0.0018                 0.0073
 IR Inten    --      0.0843                 2.8882                 4.2315

                      4                      5                      6
                      A                      A                      A
 Frequencies --     60.8719                67.4697                74.2154
 Red. masses --      4.9659                 5.4417                 3.0593
 Frc consts  --      0.0108                 0.0146                 0.0099
 IR Inten    --      0.2291                 0.0446                 3.0130

                      7                      8                      9
                      A                      A                      A
 Frequencies --    128.9911               149.8686               191.8486
 Red. masses --      5.7273                 5.3433                 2.7023
 Frc consts  --      0.0561                 0.0707                 0.0586
 IR Inten    --      1.5785                 8.1687                 0.6414

                     10                     11                     12
                      A                      A                      A
 Frequencies --    221.4080               237.5408               247.8758
 Red. masses --      5.8946                 1.1297                 5.3435
 Frc consts  --      0.1703                 0.0376                 0.1934
 IR Inten    --      0.7276                 0.0329                 6.0289

                     13                     14                     15
                      A                      A                      A
 Frequencies --    304.0093               337.4729               359.3251
 Red. masses --      4.8334                 3.1142                 5.9944
 Frc consts  --      0.2632                 0.2090                 0.4560
 IR Inten    --      2.0720                48.8571                 3.1887

                     16                     17                     18
                      A                      A                      A
 Frequencies --    363.9475               409.2689               422.7735
 Red. masses --      1.6450                 4.8481                 3.0917
 Frc consts  --      0.1284                 0.4785                 0.3256
 IR Inten    --     45.8198                 4.0717                 0.0105

                     19                     20                     21
                      A                      A                      A
 Frequencies --    501.5802               503.9495               525.0322
 Red. masses --      1.5028                 2.6309                 2.7651
 Frc consts  --      0.2228                 0.3937                 0.4491
 IR Inten    --    102.0485                 0.8387                55.1675

                     22                     23                     24
                      A                      A                      A
 Frequencies --    543.3845               638.9196               687.9471
 Red. masses --      7.3227                 6.9474                 6.3146
 Frc consts  --      1.2739                 1.6710                 1.7608
 IR Inten    --      2.8892                 1.6194                 2.6898

                     25                     26                     27
                      A                      A                      A
 Frequencies --    692.6793               753.1830               761.9356
 Red. masses --      3.6532                 1.9447                 6.3240
 Frc consts  --      1.0327                 0.6500                 2.1631
 IR Inten    --      8.2844                 8.4847                30.9102

                     28                     29                     30
                      A                      A                      A
 Frequencies --    766.3617               789.3164               846.3631
 Red. masses --      1.9832                 5.3993                 1.3721
 Frc consts  --      0.6862                 1.9819                 0.5791
 IR Inten    --      6.1525                13.9407                12.8785

                     31                     32                     33
                      A                      A                      A
 Frequencies --    856.4697               885.8350               898.4499
 Red. masses --      6.2128                 1.5710                 4.4301
 Frc consts  --      2.6851                 0.7263                 2.1069
 IR Inten    --     15.0367                43.3277                26.4081

                     34                     35                     36
                      A                      A                      A
 Frequencies --    901.6925               933.3562               989.7251
 Red. masses --      1.3261                 1.7121                 1.3017
 Frc consts  --      0.6353                 0.8788                 0.7513
 IR Inten    --      9.7919                 6.6095                 0.5733

                     37                     38                     39
                      A                      A                      A
 Frequencies --   1018.1714              1031.9467              1045.4094
 Red. masses --      1.3098                 3.0055                 3.9927
 Frc consts  --      0.8000                 1.8858                 2.5709
 IR Inten    --      0.0568                 2.0163                 2.8668

                     40                     41                     42
                      A                      A                      A
 Frequencies --   1079.6238              1144.4678              1152.9373
 Red. masses --      2.6249                 2.0887                 1.8420
 Frc consts  --      1.8026                 1.6119                 1.4426
 IR Inten    --      4.7415                10.2928                55.0065

                     43                     44                     45
                      A                      A                      A
 Frequencies --   1159.9554              1164.9437              1181.3845
 Red. masses --      1.6756                 2.5761                 1.7379
 Frc consts  --      1.3283                 2.0598                 1.4291
 IR Inten    --     91.5500                 2.2854                 0.9832

                     46                     47                     48
                      A                      A                      A
 Frequencies --   1219.6316              1238.6866              1282.4315
 Red. masses --      1.4120                 1.6329                 1.2921
 Frc consts  --      1.2375                 1.4762                 1.2520
 IR Inten    --     77.4973               324.0734               116.6919

                     49                     50                     51
                      A                      A                      A
 Frequencies --   1305.3251              1328.2058              1338.0211
 Red. masses --      2.1777                 1.1435                 1.4770
 Frc consts  --      2.1862                 1.1886                 1.5580
 IR Inten    --      0.2356                19.0059                50.3605

                     52                     53                     54
                      A                      A                      A
 Frequencies --   1347.1113              1378.7759              1426.4371
 Red. masses --      1.3362                 6.5705                 1.5177
 Frc consts  --      1.4287                 7.3593                 1.8195
 IR Inten    --      4.6402               155.9742                 0.4443

                     55                     56                     57
                      A                      A                      A
 Frequencies --   1437.7808              1459.7502              1469.0924
 Red. masses --      1.3188                 3.5757                 7.1294
 Frc consts  --      1.6062                 4.4892                 9.0657
 IR Inten    --      2.4464               349.3733               420.1464

                     58                     59                     60
                      A                      A                      A
 Frequencies --   1516.4472              1525.2069              1527.5305
 Red. masses --      1.0597                 1.0443                 1.0752
 Frc consts  --      1.4358                 1.4313                 1.4782
 IR Inten    --      6.7030                15.1156                 1.9322

                     61                     62                     63
                      A                      A                      A
 Frequencies --   1537.1144              1544.1603              1561.5234
 Red. masses --      1.2899                 1.4072                 2.5418
 Frc consts  --      1.7957                 1.9769                 3.6517
 IR Inten    --     52.7363               207.8792                26.0991

                     64                     65                     66
                      A                      A                      A
 Frequencies --   1587.5092              1666.1157              1685.6319
 Red. masses --      2.5064                 6.6170                 6.1241
 Frc consts  --      3.7216                10.8223                10.2523
 IR Inten    --    929.4932                82.8495                94.2877

                     67                     68                     69
                      A                      A                      A
 Frequencies --   1723.0203              1827.8742              3056.6056
 Red. masses --     10.8685                 8.7856                 1.0644
 Frc consts  --     19.0108                17.2948                 5.8593
 IR Inten    --    279.9557               272.2854                18.9752

                     70                     71                     72
                      A                      A                      A
 Frequencies --   3058.5352              3080.9227              3107.9966
 Red. masses --      1.0723                 1.0364                 1.0955
 Frc consts  --      5.9100                 5.7961                 6.2349
 IR Inten    --     39.6570                29.4236                15.6236

                     73                     74                     75
                      A                      A                      A
 Frequencies --   3146.1368              3153.2591              3161.8317
 Red. masses --      1.0972                 1.1015                 1.1018
 Frc consts  --      6.3988                 6.4528                 6.4901
 IR Inten    --      1.0142                47.1453                27.2736

                     76                     77                     78
                      A                      A                      A
 Frequencies --   3212.4214              3266.8968              3270.6376
 Red. masses --      1.0909                 1.0918                 1.0936
 Frc consts  --      6.6327                 6.8654                 6.8923
 IR Inten    --     11.3335                 2.4526                 2.7170

                     79                     80                     81
                      A                      A                      A
 Frequencies --   3301.7664              3623.5326              3636.3813
 Red. masses --      1.0934                 1.0774                 1.0770
 Frc consts  --      7.0231                 8.3351                 8.3909
 IR Inten    --     10.5521                18.6172                38.4494

 - Thermochemistry -
 -------------------
 Temperature   298.150 Kelvin.  Pressure   1.00000 Atm.
 Atom     1 has atomic number  6 and mass  12.00000

 Molecular mass:   223.09569 amu.
 Principal axes and moments of inertia in atomic units:
                           1         2         3
     Eigenvalues --   700.17887********************
           X            1.00000   0.00116   0.00050
           Y           -0.00116   1.00000   0.00112
           Z           -0.00050  -0.00112   1.00000
 This molecule is an asymmetric top.
 Rotational symmetry number  1.
 Warning -- assumption of classical behavior for rotation
           may cause significant error
 Rotational temperatures (Kelvin)      0.12370     0.00752     0.00711
 Rotational constants (GHZ):           2.57754     0.15659     0.14813
 Zero-point vibrational energy     616973.9 (Joules/Mol)
                                  147.46031 (Kcal/Mol)
 Warning -- explicit consideration of  22 degrees of freedom as
           vibrations may cause significant error
 Vibrational temperatures:     29.00    45.51    80.55    87.58    97.07
          (Kelvin)            106.78   185.59   215.63   276.03   318.56
                              341.77   356.64   437.40   485.55   516.99
                              523.64   588.85   608.28   721.66   725.07
                              755.40   781.81   919.26   989.80   996.61
                             1083.66  1096.25  1102.62  1135.65  1217.73
                             1232.27  1274.52  1292.67  1297.33  1342.89
                             1423.99  1464.92  1484.74  1504.11  1553.34
                             1646.63  1658.82  1668.92  1676.09  1699.75
                             1754.78  1782.19  1845.13  1878.07  1910.99
                             1925.11  1938.19  1983.75  2052.32  2068.64
                             2100.25  2113.69  2181.83  2194.43  2197.77
                             2211.56  2221.70  2246.68  2284.07  2397.17
                             2425.25  2479.04  2629.90  4397.77  4400.54
                             4432.76  4471.71  4526.58  4536.83  4549.16
                             4621.95  4700.33  4705.71  4750.50  5213.45
                             5231.94

 Zero-point correction=                           0.234993 (Hartree/Particle)
 Thermal correction to Energy=                    0.250638
 Thermal correction to Enthalpy=                  0.251582
 Thermal correction to Gibbs Free Energy=         0.189318
 Sum of electronic and zero-point Energies=           -778.214953
 Sum of electronic and thermal Energies=              -778.199308
 Sum of electronic and thermal Enthalpies=            -778.198364
 Sum of electronic and thermal Free Energies=         -778.260628

                     E (Thermal)             CV                S
                      KCal/Mol        Cal/Mol-Kelvin    Cal/Mol-Kelvin
 Total                  157.277             56.521            131.045
 Electronic               0.000              0.000              0.000
 Translational            0.889              2.981             42.110
 Rotational               0.889              2.981             32.952
 Vibrational            155.500             50.559             55.983
 Vibration     1          0.593              1.986              6.619
 Vibration     2          0.594              1.983              5.724
 Vibration     3          0.596              1.975              4.594
 Vibration     4          0.597              1.973              4.429
 Vibration     5          0.598              1.970              4.226
 Vibration     6          0.599              1.966              4.038
 Vibration     7          0.611              1.924              2.961
 Vibration     8          0.618              1.903              2.674
 Vibration     9          0.634              1.851              2.210
 Vibration    10          0.648              1.808              1.948
 Vibration    11          0.656              1.783              1.821
 Vibration    12          0.662              1.766              1.746
 Vibration    13          0.695              1.666              1.395
 Vibration    14          0.718              1.601              1.224
 Vibration    15          0.734              1.556              1.125
 Vibration    16          0.737              1.546              1.105
 Vibration    17          0.774              1.450              0.929
 Vibration    18          0.785              1.421              0.883
 Vibration    19          0.857              1.247              0.654
 Vibration    20          0.859              1.241              0.648
 Vibration    21          0.880              1.195              0.598
 Vibration    22          0.899              1.154              0.558

 Normal termination of Gaussian 09 at Mon Jul 16 13:54:10 2018.
