 Gaussian 09, Revision E.01,

 ----------------------------------------------------------------------
 # M062X/Gen 6D SCF=Tight INT(grid=ultrafine) OPT=CalcFC IOP(2/17=4) SC
 RF=(SMD,Solvent=n-Pentadecane) maxdisk=2147483648
 ----------------------------------------------------------------------

 ---------------------------------------------
 aryl_urea_nitro.M062X_6-31pGd_opt_Pentadecane
 ---------------------------------------------
 Symbolic Z-matrix:
 Charge =  0 Multiplicity = 1

 SCF Done:  E(RM062X) =  -778.413621890     A.U. after   16 cycles
 SCF Done:  E(RM062X) =  -778.452758298     A.U. after   16 cycles
 SCF Done:  E(RM062X) =  -778.463017202     A.U. after   15 cycles
 SCF Done:  E(RM062X) =  -778.465787344     A.U. after   17 cycles
 SCF Done:  E(RM062X) =  -778.465361191     A.U. after   15 cycles
 SCF Done:  E(RM062X) =  -778.466309110     A.U. after   11 cycles
 SCF Done:  E(RM062X) =  -778.468134268     A.U. after   14 cycles
 SCF Done:  E(RM062X) =  -778.468266893     A.U. after   14 cycles
 SCF Done:  E(RM062X) =  -778.463285577     A.U. after   16 cycles
 SCF Done:  E(RM062X) =  -778.468573815     A.U. after   13 cycles
 SCF Done:  E(RM062X) =  -778.468662721     A.U. after   15 cycles
 SCF Done:  E(RM062X) =  -778.468806256     A.U. after   15 cycles
 SCF Done:  E(RM062X) =  -778.468515971     A.U. after   16 cycles
 SCF Done:  E(RM062X) =  -778.468813291     A.U. after   15 cycles
 SCF Done:  E(RM062X) =  -778.468846351     A.U. after   14 cycles
 SCF Done:  E(RM062X) =  -778.468834953     A.U. after   13 cycles
 SCF Done:  E(RM062X) =  -778.468847277     A.U. after   13 cycles
 SCF Done:  E(RM062X) =  -778.468847252     A.U. after   11 cycles
 SCF Done:  E(RM062X) =  -778.468847190     A.U. after   10 cycles
 Optimization completed.
    -- Stationary point found.
 Normal termination of Gaussian 09 at Mon Feb 25 21:28:07 2019.
 Gaussian 09:  ES64L-G09RevE.01 30-Nov-2015

 ----------------------------------------------------------------------
 # M062X/Gen 6D SCF=Tight INT(grid=ultrafine) SCRF=(SMD,Solvent=n-Penta
 decane) Freq=Noraman maxdisk=2147483648 geom=check guess=read IOP(2/17
 =4)
 ----------------------------------------------------------------------

 ---------------------------------------------
 aryl_urea_nitro.M062X_6-31pGd_opt_Pentadecane
 ---------------------------------------------
 Structure from the checkpoint file:  "aryl_urea_nitro.M062X_6-31pGd_opt_Pentadecane.chk"
 Charge =  0 Multiplicity = 1

                         Standard orientation:
 ---------------------------------------------------------------------
 Center     Atomic      Atomic             Coordinates (Angstroms)
 Number     Number       Type             X           Y           Z
 ---------------------------------------------------------------------
      1          6           0        3.317993    0.013509    0.002155
      2          6           0        2.827708    1.316592    0.022277
      3          6           0        1.458874    1.510973    0.013851
      4          6           0        0.572679    0.416950   -0.014329
      5          6           0        1.090190   -0.889987   -0.031792
      6          6           0        2.464632   -1.083753   -0.024673
      7          7           0       -0.786836    0.712201   -0.036052
      8          6           0       -1.859118   -0.175548    0.001644
      9          7           0       -3.074701    0.442503   -0.073283
     10          8           0       -1.729986   -1.384596    0.118432
     11          6           0       -4.296586   -0.347671   -0.147092
     12          6           0       -5.512576    0.529362    0.122394
     13          6           0       -6.808711   -0.272167    0.045337
     14          1           0        1.062513    2.523133    0.028824
     15          1           0        0.419332   -1.736812   -0.046541
     16          1           0       -1.012136    1.699239   -0.005269
     17          1           0       -3.120090    1.387894   -0.434642
     18          1           0       -4.223099   -1.141658    0.601033
     19          1           0       -4.384378   -0.832568   -1.129534
     20          1           0       -5.543238    1.348226   -0.609490
     21          1           0       -5.408410    0.987572    1.113256
     22          1           0       -6.939498   -0.718185   -0.946726
     23          1           0       -7.676839    0.363304    0.243610
     24          1           0       -6.812487   -1.083844    0.780964
     25          1           0        3.512280    2.156414    0.044336
     26          1           0        2.875816   -2.086596   -0.038760
     27          7           0        4.761684   -0.201954    0.010124
     28          8           0        5.170560   -1.352347   -0.010735
     29          8           0        5.486762    0.781326    0.036650
 ---------------------------------------------------------------------

 SCF Done:  E(RM062X) =  -778.468847190     A.U. after    1 cycles

 The electronic state is 1-A.
 Alpha  occ. eigenvalues --  -19.68126 -19.68101 -19.62509 -15.01399 -14.81925
 Alpha  occ. eigenvalues --  -14.79728 -10.69928 -10.63086 -10.61030 -10.58668
 Alpha  occ. eigenvalues --  -10.58397 -10.58095 -10.57725 -10.56712 -10.55585
 Alpha  occ. eigenvalues --  -10.54216  -1.36758  -1.19185  -1.18023  -1.07707
 Alpha  occ. eigenvalues --   -1.04243  -0.99067  -0.90858  -0.88622  -0.87192
 Alpha  occ. eigenvalues --   -0.81229  -0.77296  -0.73473  -0.70275  -0.69440
 Alpha  occ. eigenvalues --   -0.67498  -0.65052  -0.64659  -0.62410  -0.62255
 Alpha  occ. eigenvalues --   -0.60024  -0.56746  -0.54877  -0.53952  -0.53347
 Alpha  occ. eigenvalues --   -0.53194  -0.51858  -0.50486  -0.48662  -0.48504
 Alpha  occ. eigenvalues --   -0.47236  -0.45716  -0.43286  -0.43085  -0.41330
 Alpha  occ. eigenvalues --   -0.40640  -0.39565  -0.39140  -0.37935  -0.37815
 Alpha  occ. eigenvalues --   -0.35868  -0.33422  -0.33004  -0.28923
 Alpha virt. eigenvalues --   -0.05234  -0.00212   0.00237   0.02282   0.02888
 Alpha virt. eigenvalues --    0.03257   0.03530   0.03870   0.04019   0.04876
 Alpha virt. eigenvalues --    0.05216   0.06019   0.06581   0.07024   0.07612

 Mulliken charges:
               1
     1  C   -0.223518
     2  C    0.147357
     3  C   -1.536212
     4  C    0.462549
     5  C    0.795286
     6  C   -0.421507
     7  N   -0.665533
     8  C    0.826964
     9  N   -0.612851
    10  O   -0.597221
    11  C   -0.167552
    12  C   -0.325490
    13  C   -0.741802
    14  H    0.224401
    15  H    0.282656
    16  H    0.441871
    17  H    0.414677
    18  H    0.246469
    19  H    0.223392
    20  H    0.211173
    21  H    0.229733
    22  H    0.218205
    23  H    0.218916
    24  H    0.220002
    25  H    0.268286
    26  H    0.270354
    27  N   -0.288014
    28  O   -0.054291
    29  O   -0.068299
 Sum of Mulliken charges =  -0.00000

 Dipole moment (field-independent basis, Debye):
    X=             -8.7788    Y=              5.0546    Z=             -0.7898  Tot=             10.1607
 Quadrupole moment (field-independent basis, Debye-Ang):
   XX=           -118.7824   YY=            -90.1670   ZZ=            -96.6774
   XY=             -4.4292   XZ=              2.0958   YZ=             -0.6123

  Exact polarizability: 267.886  -3.546 169.286   1.716   0.646  98.621
 Approx polarizability: 235.340  -3.377 209.805   1.580   0.227 114.777

                      1                      2                      3
                      A                      A                      A
 Frequencies --     23.5197                31.1280                56.0164
 Red. masses --      4.2724                 3.1558                 3.3987
 Frc consts  --      0.0014                 0.0018                 0.0063
 IR Inten    --      0.1015                 3.8340                 6.9693

                      4                      5                      6
                      A                      A                      A
 Frequencies --     62.3402                66.5640                72.6976
 Red. masses --      5.1511                 5.2259                 3.3993
 Frc consts  --      0.0118                 0.0136                 0.0106
 IR Inten    --      0.1995                 1.7075                 3.1679

                      7                      8                      9
                      A                      A                      A
 Frequencies --    131.6604               147.0564               200.3748
 Red. masses --      5.2173                 5.6429                 3.1215
 Frc consts  --      0.0533                 0.0719                 0.0738
 IR Inten    --      1.9131                12.3218                 0.8462

                     10                     11                     12
                      A                      A                      A
 Frequencies --    222.0157               237.5485               248.8741
 Red. masses --      5.9592                 1.1725                 4.6110
 Frc consts  --      0.1731                 0.0390                 0.1683
 IR Inten    --      0.4762                 0.1392                 7.1679

                     13                     14                     15
                      A                      A                      A
 Frequencies --    306.4604               333.4343               353.4534
 Red. masses --      5.9158                 2.1201                 1.8139
 Frc consts  --      0.3274                 0.1389                 0.1335
 IR Inten    --      0.8975                85.0365                36.1953

                     16                     17                     18
                      A                      A                      A
 Frequencies --    360.8556               410.6038               423.6220
 Red. masses --      5.9714                 5.2874                 3.0712
 Frc consts  --      0.4581                 0.5252                 0.3247
 IR Inten    --      0.8224                 4.2980                 0.2082

                     19                     20                     21
                      A                      A                      A
 Frequencies --    502.7042               520.4880               540.2131
 Red. masses --      2.8842                 4.0145                 1.4277
 Frc consts  --      0.4294                 0.6408                 0.2455
 IR Inten    --     23.7647                16.9733               111.9301

                     22                     23                     24
                      A                      A                      A
 Frequencies --    545.0065               638.6586               689.0584
 Red. masses --      3.6028                 7.0247                 6.5564
 Frc consts  --      0.6305                 1.6882                 1.8341
 IR Inten    --     29.8573                 2.2241                 2.9460

                     25                     26                     27
                      A                      A                      A
 Frequencies --    695.1667               754.0385               765.6554
 Red. masses --      3.5983                 1.6069                 2.8583
 Frc consts  --      1.0245                 0.5383                 0.9873
 IR Inten    --      9.2653                10.4826                 6.7127

                     28                     29                     30
                      A                      A                      A
 Frequencies --    766.7576               788.7511               846.9912
 Red. masses --      4.9917                 5.5935                 1.3522
 Frc consts  --      1.7291                 2.0503                 0.5715
 IR Inten    --     36.2871                13.9498                13.2793

                     31                     32                     33
                      A                      A                      A
 Frequencies --    857.7229               883.8505               898.5432
 Red. masses --      6.3067                 1.6160                 3.7108
 Frc consts  --      2.7337                 0.7438                 1.7652
 IR Inten    --     16.9289                55.8952                25.0582

                     34                     35                     36
                      A                      A                      A
 Frequencies --    900.7199               933.3016               991.6942
 Red. masses --      1.4054                 1.7011                 1.3042
 Frc consts  --      0.6718                 0.8730                 0.7557
 IR Inten    --     12.3951                 8.0725                 0.3079

                     37                     38                     39
                      A                      A                      A
 Frequencies --   1017.6176              1031.1180              1046.9571
 Red. masses --      1.3141                 3.0313                 3.9975
 Frc consts  --      0.8018                 1.8989                 2.5817
 IR Inten    --      0.0587                 5.9380                 4.7137

                     40                     41                     42
                      A                      A                      A
 Frequencies --   1081.9473              1145.1491              1155.0972
 Red. masses --      2.5329                 2.0807                 2.2891
 Frc consts  --      1.7469                 1.6076                 1.7995
 IR Inten    --      5.9621                14.9930               204.3510

                     43                     44                     45
                      A                      A                      A
 Frequencies --   1159.6660              1165.1862              1181.9903
 Red. masses --      1.4430                 2.4820                 1.8254
 Frc consts  --      1.1434                 1.9854                 1.5026
 IR Inten    --     43.9034                 6.9048                 6.0701

                     46                     47                     48
                      A                      A                      A
 Frequencies --   1223.6493              1248.4983              1280.3719
 Red. masses --      1.4311                 1.6210                 1.2725
 Frc consts  --      1.2625                 1.4887                 1.2291
 IR Inten    --     64.1897               456.7911               149.4066

                     49                     50                     51
                      A                      A                      A
 Frequencies --   1312.3557              1326.5201              1341.0018
 Red. masses --      2.1477                 1.1486                 1.5330
 Frc consts  --      2.1793                 1.1908                 1.6242
 IR Inten    --      7.9513                19.3640                74.8101

                     52                     53                     54
                      A                      A                      A
 Frequencies --   1347.2408              1383.7140              1424.5657
 Red. masses --      1.3506                 6.3929                 1.5175
 Frc consts  --      1.4443                 7.2117                 1.8145
 IR Inten    --     26.4308               272.6827                 5.2707

                     55                     56                     57
                      A                      A                      A
 Frequencies --   1436.1242              1456.5837              1466.6573
 Red. masses --      1.3364                 7.3074                 3.5668
 Frc consts  --      1.6239                 9.1345                 4.5205
 IR Inten    --      1.9988               928.3274                50.7216

                     58                     59                     60
                      A                      A                      A
 Frequencies --   1507.6273              1519.2928              1521.8994
 Red. masses --      1.0618                 1.0417                 1.0725
 Frc consts  --      1.4219                 1.4167                 1.4636
 IR Inten    --      6.5440                13.3706                 2.5804

                     61                     62                     63
                      A                      A                      A
 Frequencies --   1533.9392              1552.7924              1565.7244
 Red. masses --      1.0943                 1.8721                 2.4786
 Frc consts  --      1.5170                 2.6595                 3.5800
 IR Inten    --      6.8527               425.7014                44.9053

                     64                     65                     66
                      A                      A                      A
 Frequencies --   1590.6067              1658.5894              1684.9373
 Red. masses --      2.3404                 6.3411                 5.8772
 Frc consts  --      3.4888                10.2776                 9.8307
 IR Inten    --    976.1379               149.9203                97.0117

                     67                     68                     69
                      A                      A                      A
 Frequencies --   1709.6319              1809.1095              3059.6010
 Red. masses --      9.2976                 8.0627                 1.0686
 Frc consts  --     16.0113                15.5476                 5.8938
 IR Inten    --    312.5045               382.8089                25.1417

                     70                     71                     72
                      A                      A                      A
 Frequencies --   3063.5020              3079.6589              3107.2693
 Red. masses --      1.0656                 1.0366                 1.0980
 Frc consts  --      5.8922                 5.7923                 6.2461
 IR Inten    --     46.8128                34.0708                18.9112

                     73                     74                     75
                      A                      A                      A
 Frequencies --   3145.9138              3152.0892              3158.5742
 Red. masses --      1.0983                 1.1007                 1.1020
 Frc consts  --      6.4043                 6.4436                 6.4778
 IR Inten    --      2.7636                59.2767                32.7193

                     76                     77                     78
                      A                      A                      A
 Frequencies --   3221.2837              3267.5479              3270.8902
 Red. masses --      1.0910                 1.0920                 1.0939
 Frc consts  --      6.6703                 6.8697                 6.8953
 IR Inten    --      7.7862                 2.7628                 3.2487

                     79                     80                     81
                      A                      A                      A
 Frequencies --   3302.1333              3619.5949              3633.4534
 Red. masses --      1.0936                 1.0782                 1.0773
 Frc consts  --      7.0257                 8.3230                 8.3793
 IR Inten    --     11.2672                22.4407                80.4601

 - Thermochemistry -
 -------------------
 Temperature   298.150 Kelvin.  Pressure   1.00000 Atm.
 Atom     1 has atomic number  6 and mass  12.00000

 Molecular mass:   223.09569 amu.
 Principal axes and moments of inertia in atomic units:
                           1         2         3
     Eigenvalues --   699.73385********************
           X            1.00000   0.00073   0.00020
           Y           -0.00073   1.00000   0.00090
           Z           -0.00019  -0.00090   1.00000
 This molecule is an asymmetric top.
 Rotational symmetry number  1.
 Warning -- assumption of classical behavior for rotation
           may cause significant error
 Rotational temperatures (Kelvin)      0.12378     0.00751     0.00711
 Rotational constants (GHZ):           2.57918     0.15649     0.14805
 Zero-point vibrational energy     617124.9 (Joules/Mol)
                                  147.49638 (Kcal/Mol)
 Warning -- explicit consideration of  22 degrees of freedom as
           vibrations may cause significant error
 Vibrational temperatures:     33.84    44.79    80.59    89.69    95.77
          (Kelvin)            104.60   189.43   211.58   288.29   319.43
                              341.78   358.07   440.93   479.74   508.54
                              519.19   590.77   609.50   723.28   748.87
                              777.25   784.14   918.89   991.40  1000.19
                             1084.89  1101.61  1103.19  1134.84  1218.63
                             1234.07  1271.66  1292.80  1295.93  1342.81
                             1426.82  1464.12  1483.55  1506.34  1556.68
                             1647.61  1661.93  1668.50  1676.44  1700.62
                             1760.56  1796.31  1842.17  1888.18  1908.56
                             1929.40  1938.38  1990.85  2049.63  2066.26
                             2095.70  2110.19  2169.14  2185.92  2189.67
                             2206.99  2234.12  2252.73  2288.53  2386.34
                             2424.25  2459.78  2602.90  4402.08  4407.69
                             4430.94  4470.66  4526.26  4535.15  4544.48
                             4634.70  4701.27  4706.08  4751.03  5207.78
                             5227.72

 Zero-point correction=                           0.235050 (Hartree/Particle)
 Thermal correction to Energy=                    0.250656
 Thermal correction to Enthalpy=                  0.251600
 Thermal correction to Gibbs Free Energy=         0.189528
 Sum of electronic and zero-point Energies=           -778.233797
 Sum of electronic and thermal Energies=              -778.218191
 Sum of electronic and thermal Enthalpies=            -778.217247
 Sum of electronic and thermal Free Energies=         -778.279319

                     E (Thermal)             CV                S
                      KCal/Mol        Cal/Mol-Kelvin    Cal/Mol-Kelvin
 Total                  157.289             56.425            130.642
 Electronic               0.000              0.000              0.000
 Translational            0.889              2.981             42.110
 Rotational               0.889              2.981             32.953
 Vibrational            155.512             50.463             55.579
 Vibration     1          0.593              1.985              6.312
 Vibration     2          0.594              1.983              5.756
 Vibration     3          0.596              1.975              4.593
 Vibration     4          0.597              1.972              4.382
 Vibration     5          0.598              1.970              4.252
 Vibration     6          0.599              1.967              4.079
 Vibration     7          0.612              1.922              2.922
 Vibration     8          0.617              1.906              2.710
 Vibration     9          0.638              1.839              2.130
 Vibration    10          0.648              1.808              1.943
 Vibration    11          0.656              1.783              1.821
 Vibration    12          0.662              1.765              1.739
 Vibration    13          0.697              1.661              1.381
 Vibration    14          0.715              1.609              1.243
 Vibration    15          0.730              1.568              1.151
 Vibration    16          0.735              1.553              1.118
 Vibration    17          0.775              1.447              0.924
 Vibration    18          0.786              1.419              0.880
 Vibration    19          0.858              1.244              0.651
 Vibration    20          0.875              1.205              0.609
 Vibration    21          0.895              1.161              0.565
 Vibration    22          0.900              1.151              0.555

 Optimization completed.
    -- Stationary point found.
 Normal termination of Gaussian 09 at Mon Feb 25 22:02:39 2019.
