 Gaussian 09, Revision E.01,

 ----------------------------------------------------------------------
 # M062X/Gen 6D SCF=Tight INT(grid=ultrafine) OPT IOP(2/17=4) SCRF=(SMD
 ,Solvent=h2o) maxdisk=2684354560
 ----------------------------------------------------------------------

 ----------------------------------
 4Nitro_EtO.M062X_6-31pGd_opt_water
 ----------------------------------
 Symbolic Z-matrix:
 Charge = -1 Multiplicity = 1

 SCF Done:  E(RM062X) =  -1046.33163593     A.U. after   15 cycles
 SCF Done:  E(RM062X) =  -1046.33270671     A.U. after   14 cycles
 SCF Done:  E(RM062X) =  -1046.33296147     A.U. after   12 cycles
 SCF Done:  E(RM062X) =  -1046.33186076     A.U. after   15 cycles
 SCF Done:  E(RM062X) =  -1046.33299015     A.U. after   10 cycles
 SCF Done:  E(RM062X) =  -1046.33304659     A.U. after   14 cycles
 SCF Done:  E(RM062X) =  -1046.33289646     A.U. after   16 cycles
 SCF Done:  E(RM062X) =  -1046.33311247     A.U. after   14 cycles
 SCF Done:  E(RM062X) =  -1046.33312893     A.U. after   12 cycles
 SCF Done:  E(RM062X) =  -1046.33313817     A.U. after   12 cycles
 SCF Done:  E(RM062X) =  -1046.33320756     A.U. after   12 cycles
 SCF Done:  E(RM062X) =  -1046.33320763     A.U. after   11 cycles
 SCF Done:  E(RM062X) =  -1046.33320776     A.U. after   13 cycles
 SCF Done:  E(RM062X) =  -1046.33320795     A.U. after   11 cycles
 SCF Done:  E(RM062X) =  -1046.33320810     A.U. after   10 cycles
 SCF Done:  E(RM062X) =  -1046.33320845     A.U. after   10 cycles
 SCF Done:  E(RM062X) =  -1046.33320866     A.U. after    9 cycles
 SCF Done:  E(RM062X) =  -1046.33320874     A.U. after    9 cycles
 Optimization completed.
    -- Stationary point found.
 Normal termination of Gaussian 09 at Tue Feb 19 18:41:29 2019.
 Gaussian 09:  ES64L-G09RevE.01 30-Nov-2015

 ----------------------------------------------------------------------
 # M062X/Gen 6D SCF=Tight INT(grid=ultrafine) OPT IOP(2/17=4) SCRF=(SMD
 ,Solvent=h2o) Freq=Noraman maxdisk=2684354560 geom=check guess=read IO
 P(2/17=4)
 ----------------------------------------------------------------------

 ----------------------------------
 4Nitro_EtO.M062X_6-31pGd_opt_water
 ----------------------------------
 Structure from the checkpoint file:  "4Nitro_EtO.M062X_6-31pGd_opt_water.chk"
 Charge = -1 Multiplicity = 1

 SCF Done:  E(RM062X) =  -1046.33320874     A.U. after    1 cycles
 Optimization completed.
    -- Stationary point found.
 Normal termination of Gaussian 09 at Tue Feb 19 18:42:36 2019.

 ----------------------------------------------------------------------
 #N Geom=AllCheck Guess=TCheck SCRF=Check Test GenChk RM062X/ChkBas Fre
 q
 ----------------------------------------------------------------------

 Structure from the checkpoint file:  "4Nitro_EtO.M062X_6-31pGd_opt_water.chk"
 ----------------------------------
 4Nitro_EtO.M062X_6-31pGd_opt_water
 ----------------------------------
 Charge = -1 Multiplicity = 1

                         Standard orientation:
 ---------------------------------------------------------------------
 Center     Atomic      Atomic             Coordinates (Angstroms)
 Number     Number       Type             X           Y           Z
 ---------------------------------------------------------------------
      1          6           0       -4.025318   -0.201094   -0.011090
      2          6           0       -3.236236    0.946230    0.102441
      3          6           0       -1.863670    0.811325    0.103287
      4          6           0       -1.255029   -0.460155   -0.007926
      5          6           0       -2.074974   -1.601446   -0.129634
      6          6           0       -3.453651   -1.466467   -0.129106
      7          7           0        0.125490   -0.479225   -0.005997
      8          6           0        0.963250   -1.584219    0.040626
      9          7           0        2.271918   -1.277960    0.008789
     10          8           0        0.546098   -2.752913    0.115640
     11          6           0        3.279980   -2.327440    0.062962
     12          6           0        4.676514   -1.725144    0.009148
     13          6           0        5.745275   -2.811315    0.077195
     14          1           0       -1.235494    1.692328    0.193226
     15          1           0       -1.635832   -2.582915   -0.226891
     16          1           0        0.585256    0.446178    0.039731
     17          1           0        2.582771   -0.302693   -0.106368
     18          1           0        3.138566   -3.020549   -0.775818
     19          1           0        3.156943   -2.906358    0.986531
     20          1           0        4.800726   -1.022769    0.842614
     21          1           0        4.786349   -1.147103   -0.916682
     22          1           0        5.663049   -3.383558    1.007964
     23          1           0        6.749274   -2.378613    0.035469
     24          1           0        5.645274   -3.512340   -0.758950
     25          1           0       -3.693206    1.924927    0.192006
     26          1           0       -4.083188   -2.343902   -0.223283
     27          7           0       -5.462130   -0.073027   -0.007947
     28          8           0       -6.146854   -1.087870   -0.104573
     29          8           0       -5.954960    1.047425    0.091457
     30          8           0        1.286238    2.118625    0.179888
     31          6           0        2.506629    2.310299   -0.089804
     32          8           0        3.329969    1.380939   -0.343244
     33          6           0        3.046494    3.736737   -0.113224
     34          6           0        2.006920    4.825103    0.111148
     35          1           0        3.551959    3.873072   -1.076451
     36          1           0        3.833672    3.789432    0.649038
     37          1           0        1.227906    4.792473   -0.656976
     38          1           0        2.475541    5.813680    0.075231
     39          1           0        1.522457    4.716060    1.086203
 ---------------------------------------------------------------------

 SCF Done:  E(RM062X) =  -1046.33320874     A.U. after    1 cycles

 The electronic state is 1-A.
 Alpha  occ. eigenvalues --  -19.69275 -19.69265 -19.62003 -19.60689 -19.60291
 Alpha  occ. eigenvalues --  -15.02496 -14.79492 -14.77434 -10.68799 -10.65071
 Alpha  occ. eigenvalues --  -10.62382 -10.60838 -10.57840 -10.57823 -10.57259
 Alpha  occ. eigenvalues --  -10.56440 -10.56164 -10.53864 -10.53628 -10.52786
 Alpha  occ. eigenvalues --  -10.52597  -1.37594  -1.18694  -1.17807  -1.16542
 Alpha  occ. eigenvalues --   -1.06785  -1.06013  -1.02569  -0.98733  -0.90621
 Alpha  occ. eigenvalues --   -0.87442  -0.86603  -0.85742  -0.80669  -0.76312
 Alpha  occ. eigenvalues --   -0.72654  -0.72115  -0.69757  -0.67936  -0.66628
 Alpha  occ. eigenvalues --   -0.65309  -0.63301  -0.63237  -0.61466  -0.61114
 Alpha  occ. eigenvalues --   -0.58771  -0.55457  -0.54082  -0.53502  -0.53192
 Alpha  occ. eigenvalues --   -0.52764  -0.52380  -0.51887  -0.51183  -0.50621
 Alpha  occ. eigenvalues --   -0.49628  -0.47726  -0.47099  -0.46279  -0.46119
 Alpha  occ. eigenvalues --   -0.44719  -0.44242  -0.42303  -0.41714  -0.41373
 Alpha  occ. eigenvalues --   -0.40773  -0.39631  -0.39533  -0.39470  -0.39362
 Alpha  occ. eigenvalues --   -0.39045  -0.38578  -0.35618  -0.33871  -0.32875
 Alpha  occ. eigenvalues --   -0.32778  -0.32353  -0.32174  -0.27603
 Alpha virt. eigenvalues --   -0.06398   0.00911   0.01904   0.02960   0.03390
 Alpha virt. eigenvalues --    0.03447   0.04061   0.04257   0.04373   0.04688
 Alpha virt. eigenvalues --    0.05572   0.06079   0.06446   0.06772   0.07062

 Mulliken charges:
               1
     1  C   -0.148378
     2  C   -0.073205
     3  C   -0.580890
     4  C    0.293363
     5  C    0.532757
     6  C   -0.783739
     7  N   -0.635307
     8  C    0.892114
     9  N   -0.799779
    10  O   -0.735761
    11  C   -0.208093
    12  C   -0.344069
    13  C   -0.825304
    14  H    0.276393
    15  H    0.281799
    16  H    0.530664
    17  H    0.527009
    18  H    0.239833
    19  H    0.239355
    20  H    0.236688
    21  H    0.236833
    22  H    0.221344
    23  H    0.223008
    24  H    0.221457
    25  H    0.284655
    26  H    0.282973
    27  N   -0.211650
    28  O   -0.137815
    29  O   -0.147157
    30  O   -0.792692
    31  C    0.765843
    32  O   -0.772484
    33  C   -0.501842
    34  C   -0.743390
    35  H    0.244195
    36  H    0.246858
    37  H    0.222531
    38  H    0.218624
    39  H    0.223258
 Sum of Mulliken charges =  -1.00000

 Dipole moment (field-independent basis, Debye):
    X=              3.4796    Y=              0.0765    Z=             -0.0023  Tot=              3.4805
 Quadrupole moment (field-independent basis, Debye-Ang):
   XX=           -206.4131   YY=           -143.4225   ZZ=           -129.0848
   XY=             -7.0371   XZ=              2.8195   YZ=              1.1211

  Exact polarizability: 435.091 -20.973 303.165  -3.745   7.474 182.199
 Approx polarizability: 322.862  -8.512 256.454  -2.986   6.790 158.951

                      1                      2                      3
                      A                      A                      A
 Frequencies --      9.0963                24.5525                28.7529
 Red. masses --      4.3418                 5.0121                 3.6086
 Frc consts  --      0.0002                 0.0018                 0.0018
 IR Inten    --      2.9562                 0.6384                 0.1575

                      4                      5                      6
                      A                      A                      A
 Frequencies --     34.1367                48.5012                52.2894
 Red. masses --      2.6370                 4.7324                 5.0041
 Frc consts  --      0.0018                 0.0066                 0.0081
 IR Inten    --      1.5214                 4.0882                 0.9908

                      7                      8                      9
                      A                      A                      A
 Frequencies --     56.3063                62.8475                65.3902
 Red. masses --      4.1752                 5.6090                 3.5082
 Frc consts  --      0.0078                 0.0131                 0.0088
 IR Inten    --      7.6686                 3.4104                 2.5891

                     10                     11                     12
                      A                      A                      A
 Frequencies --     72.2390                78.0557               100.6472
 Red. masses --      4.2204                 4.2128                 4.7202
 Frc consts  --      0.0130                 0.0151                 0.0282
 IR Inten    --      1.1448                11.6839                25.2350

                     13                     14                     15
                      A                      A                      A
 Frequencies --    132.4286               137.7250               170.3783
 Red. masses --      5.2741                 7.0813                 3.7941
 Frc consts  --      0.0545                 0.0791                 0.0649
 IR Inten    --     15.8636                35.1889                12.8250

                     16                     17                     18
                      A                      A                      A
 Frequencies --    175.9306               224.1476               239.3739
 Red. masses --      4.3061                 6.2336                 1.1439
 Frc consts  --      0.0785                 0.1845                 0.0386
 IR Inten    --      7.5686                 1.0569                 0.1068

                     19                     20                     21
                      A                      A                      A
 Frequencies --    245.1976               255.5997               299.9412
 Red. masses --      1.0923                 5.4257                 4.0584
 Frc consts  --      0.0387                 0.2088                 0.2151
 IR Inten    --      1.4723                 7.2957                10.6493

                     22                     23                     24
                      A                      A                      A
 Frequencies --    301.1577               347.2037               361.5182
 Red. masses --      6.3496                 4.6730                 5.8422
 Frc consts  --      0.3393                 0.3319                 0.4499
 IR Inten    --      2.1327                24.1589                 0.9115

                     25                     26                     27
                      A                      A                      A
 Frequencies --    408.8490               421.7686               499.3669
 Red. masses --      6.0284                 3.0234                 2.7376
 Frc consts  --      0.5937                 0.3169                 0.4022
 IR Inten    --      7.4950                 0.2344                24.4645

                     28                     29                     30
                      A                      A                      A
 Frequencies --    519.0136               520.2096               545.0621
 Red. masses --      5.0874                 5.1425                 7.4960
 Frc consts  --      0.8074                 0.8199                 1.3121
 IR Inten    --     17.0596                30.4191                 6.8179

                     31                     32                     33
                      A                      A                      A
 Frequencies --    580.0538               634.6745               653.0348
 Red. masses --      1.9419                 7.1445                 3.8544
 Frc consts  --      0.3850                 1.6956                 0.9685
 IR Inten    --      1.9079                 5.9657                76.6526

                     34                     35                     36
                      A                      A                      A
 Frequencies --    669.2999               687.8024               702.7102
 Red. masses --      1.3231                 5.8539                 3.4952
 Frc consts  --      0.3492                 1.6316                 1.0169
 IR Inten    --    154.0727                20.3362                17.0931

                     37                     38                     39
                      A                      A                      A
 Frequencies --    760.0988               770.0036               773.9260
 Red. masses --      1.1726                 5.5837                 4.0776
 Frc consts  --      0.3992                 1.9506                 1.4390
 IR Inten    --     13.4033                26.2172                64.7593

                     40                     41                     42
                      A                      A                      A
 Frequencies --    781.3048               819.0583               822.6616
 Red. masses --      5.5740                 1.3238                 1.3503
 Frc consts  --      2.0047                 0.5232                 0.5384
 IR Inten    --      4.2744                12.1306               115.9090

                     43                     44                     45
                      A                      A                      A
 Frequencies --    846.0785               856.8264               869.5678
 Red. masses --      1.4019                 3.3523                 1.9268
 Frc consts  --      0.5913                 1.4500                 0.8584
 IR Inten    --    102.8453               102.0690                91.3227

                     46                     47                     48
                      A                      A                      A
 Frequencies --    886.2439               895.1146               903.8109
 Red. masses --      4.0025                 6.1708                 1.1522
 Frc consts  --      1.8522                 2.9130                 0.5546
 IR Inten    --     33.7862                22.9994                 1.5369

                     49                     50                     51
                      A                      A                      A
 Frequencies --    932.0328               992.6714              1005.2230
 Red. masses --      1.6755                 1.3005                 1.3431
 Frc consts  --      0.8576                 0.7550                 0.7996
 IR Inten    --      6.2666                 0.0610                 0.0580

                     52                     53                     54
                      A                      A                      A
 Frequencies --   1022.3155              1027.9398              1049.5178
 Red. masses --      2.9007                 1.6458                 4.1997
 Frc consts  --      1.7862                 1.0246                 2.7255
 IR Inten    --     44.1660                14.3485                64.9020

                     55                     56                     57
                      A                      A                      A
 Frequencies --   1082.7806              1108.9591              1112.7702
 Red. masses --      2.5249                 1.8047                 2.3124
 Frc consts  --      1.7441                 1.3076                 1.6871
 IR Inten    --     19.4366                 3.7848                14.8709

                     58                     59                     60
                      A                      A                      A
 Frequencies --   1137.3634              1144.0804              1158.0407
 Red. masses --      1.9614                 1.5038                 1.9448
 Frc consts  --      1.4949                 1.1597                 1.5367
 IR Inten    --   1347.4151                36.7817                 3.0816

                     61                     62                     63
                      A                      A                      A
 Frequencies --   1177.0039              1180.8530              1215.4532
 Red. masses --      3.7553                 1.6196                 1.6008
 Frc consts  --      3.0652                 1.3306                 1.3933
 IR Inten    --      3.0250                 0.3211                 9.0434

                     64                     65                     66
                      A                      A                      A
 Frequencies --   1279.7981              1289.7065              1290.9346
 Red. masses --      1.1953                 1.8953                 1.1765
 Frc consts  --      1.1535                 1.8574                 1.1552
 IR Inten    --      1.8201              1892.8670                36.3618

                     67                     68                     69
                      A                      A                      A
 Frequencies --   1323.1321              1326.1661              1337.2844
 Red. masses --      1.4189                 1.0734                 1.7339
 Frc consts  --      1.4635                 1.1122                 1.8269
 IR Inten    --     72.7054                 0.3399               115.8758

                     70                     71                     72
                      A                      A                      A
 Frequencies --   1339.0235              1358.4549              1376.4062
 Red. masses --      1.7944                 2.3683                 5.3781
 Frc consts  --      1.8956                 2.5750                 6.0031
 IR Inten    --    674.6437               366.0697              1138.1134

                     73                     74                     75
                      A                      A                      A
 Frequencies --   1411.3098              1420.6332              1421.5535
 Red. masses --      3.1745                 1.3190                 1.3951
 Frc consts  --      3.7253                 1.5684                 1.6611
 IR Inten    --    429.1474                45.3603                33.5300

                     76                     77                     78
                      A                      A                      A
 Frequencies --   1431.9008              1455.9757              1470.7922
 Red. masses --      1.9130                 1.3294                 3.7759
 Frc consts  --      2.3110                 1.6603                 4.8125
 IR Inten    --     16.7584               158.6380                 7.6258

                     79                     80                     81
                      A                      A                      A
 Frequencies --   1473.8118              1490.2025              1501.1202
 Red. masses --      2.8725                 1.0594                 1.0426
 Frc consts  --      3.6762                 1.3861                 1.3842
 IR Inten    --    248.4827                 5.7549                13.7295

                     82                     83                     84
                      A                      A                      A
 Frequencies --   1502.2919              1508.0265              1512.3717
 Red. masses --      1.0400                 1.1245                 1.0820
 Frc consts  --      1.3829                 1.5067                 1.4581
 IR Inten    --     11.4476                82.2810                 1.4267

                     85                     86                     87
                      A                      A                      A
 Frequencies --   1530.3986              1550.4229              1554.6035
 Red. masses --      1.0941                 2.8312                 6.6904
 Frc consts  --      1.5097                 4.0098                 9.5267
 IR Inten    --     42.3552               293.9280               631.7040

                     88                     89                     90
                      A                      A                      A
 Frequencies --   1567.3217              1610.8513              1617.8059
 Red. masses --      8.2169                 2.5754                 2.3710
 Frc consts  --     11.8925                 3.9373                 3.6563
 IR Inten    --   1460.3932              1207.5231               586.1582

                     91                     92                     93
                      A                      A                      A
 Frequencies --   1669.4059              1685.2278              1729.5949
 Red. masses --      7.9018                 5.2845                 1.9923
 Frc consts  --     12.9748                 8.8424                 3.5114
 IR Inten    --    303.2416               271.3830               576.6900

                     94                     95                     96
                      A                      A                      A
 Frequencies --   3068.3050              3075.5573              3076.9928
 Red. masses --      1.0587                 1.0434                 1.0523
 Frc consts  --      5.8726                 5.8152                 5.8701
 IR Inten    --     33.4640                13.6509               126.2875

                     97                     98                     99
                      A                      A                      A
 Frequencies --   3083.5347              3084.8344              3099.6168
 Red. masses --      1.0466                 1.0517                 1.1042
 Frc consts  --      5.8628                 5.8965                 6.2507
 IR Inten    --     58.7017                 8.7465                10.6124

                    100                    101                    102
                      A                      A                      A
 Frequencies --   3120.2795              3121.3114              3145.6300
 Red. masses --      1.1062                 1.1012                 1.1038
 Frc consts  --      6.3456                 6.3210                 6.4354
 IR Inten    --     53.9761                 8.4392                95.9617

                    103                    104                    105
                      A                      A                      A
 Frequencies --   3153.6262              3154.9435              3159.7174
 Red. masses --      1.1025                 1.1022                 1.1034
 Frc consts  --      6.4601                 6.4639                 6.4907
 IR Inten    --     57.3039                49.4300                57.2726

                    106                    107                    108
                      A                      A                      A
 Frequencies --   3213.7452              3241.0011              3268.9373
 Red. masses --      1.0895                 1.0925                 1.0926
 Frc consts  --      6.6299                 6.7610                 6.8788
 IR Inten    --   1212.8149                 2.2879                 2.5298

                    109                    110                    111
                      A                      A                      A
 Frequencies --   3270.9984              3298.6225              3313.3604
 Red. masses --      1.0946                 1.0878                 1.0929
 Frc consts  --      6.9004                 6.9738                 7.0689
 IR Inten    --      4.1747              1707.5434                 7.4707

 - Thermochemistry -
 -------------------
 Temperature   298.150 Kelvin.  Pressure   1.00000 Atm.
 Atom     1 has atomic number  6 and mass  12.00000

 Molecular mass:   296.12465 amu.
 Principal axes and moments of inertia in atomic units:
                           1         2         3
     Eigenvalues --  4611.02487********************
           X            0.99995  -0.00957   0.00048
           Y            0.00957   0.99995   0.00109
           Z           -0.00049  -0.00108   1.00000
 This molecule is an asymmetric top.
 Rotational symmetry number  1.
 Warning -- assumption of classical behavior for rotation
           may cause significant error
 Rotational temperatures (Kelvin)      0.01878     0.00648     0.00484
 Rotational constants (GHZ):           0.39140     0.13501     0.10088
 Zero-point vibrational energy     823536.2 (Joules/Mol)
                                  196.82988 (Kcal/Mol)
 Warning -- explicit consideration of  31 degrees of freedom as
           vibrations may cause significant error
 Vibrational temperatures:     13.09    35.33    41.37    49.12    69.78
          (Kelvin)             75.23    81.01    90.42    94.08   103.94
                              112.30   144.81   190.54   198.16   245.14
                              253.12   322.50   344.41   352.78   367.75
                              431.55   433.30   499.55   520.14   588.24
                              606.83   718.48   746.74   748.46   784.22
                              834.57   913.15   939.57   962.97   989.59
                             1011.04  1093.61  1107.86  1113.51  1124.12
                             1178.44  1183.63  1217.32  1232.78  1251.11
                             1275.11  1287.87  1300.38  1340.99  1428.23
                             1446.29  1470.88  1478.97  1510.02  1557.88
                             1595.54  1601.03  1636.41  1646.07  1666.16
                             1693.44  1698.98  1748.76  1841.34  1855.60
                             1857.36  1903.69  1908.05  1924.05  1926.55
                             1954.51  1980.34  2030.56  2043.97  2045.30
                             2060.18  2094.82  2116.14  2120.48  2144.07
                             2159.77  2161.46  2169.71  2175.96  2201.90
                             2230.71  2236.72  2255.02  2317.65  2327.66
                             2401.90  2424.66  2488.50  4414.60  4425.04
                             4427.10  4436.51  4438.38  4459.65  4489.38
                             4490.87  4525.85  4537.36  4539.25  4546.12
                             4623.86  4663.07  4703.27  4706.23  4745.98
                             4767.18

 Zero-point correction=                           0.313668 (Hartree/Particle)
 Thermal correction to Energy=                    0.336234
 Thermal correction to Enthalpy=                  0.337179
 Thermal correction to Gibbs Free Energy=         0.255656
 Sum of electronic and zero-point Energies=          -1046.019540
 Sum of electronic and thermal Energies=             -1045.996974
 Sum of electronic and thermal Enthalpies=           -1045.996030
 Sum of electronic and thermal Free Energies=        -1046.077553

                     E (Thermal)             CV                S
                      KCal/Mol        Cal/Mol-Kelvin    Cal/Mol-Kelvin
 Total                  210.990             78.426            171.579
 Electronic               0.000              0.000              0.000
 Translational            0.889              2.981             42.954
 Rotational               0.889              2.981             35.354
 Vibrational            209.213             72.465             93.271
 Vibration     1          0.593              1.987              8.199
 Vibration     2          0.593              1.985              6.227
 Vibration     3          0.593              1.984              5.914
 Vibration     4          0.594              1.983              5.573
 Vibration     5          0.595              1.978              4.878
 Vibration     6          0.596              1.977              4.729
 Vibration     7          0.596              1.975              4.583
 Vibration     8          0.597              1.972              4.366
 Vibration     9          0.597              1.971              4.288
 Vibration    10          0.598              1.967              4.091
 Vibration    11          0.599              1.964              3.939
 Vibration    12          0.604              1.949              3.442
 Vibration    13          0.613              1.921              2.910
 Vibration    14          0.614              1.916              2.835
 Vibration    15          0.625              1.879              2.431
 Vibration    16          0.628              1.872              2.371
 Vibration    17          0.649              1.804              1.925
 Vibration    18          0.657              1.780              1.808
 Vibration    19          0.660              1.771              1.765
 Vibration    20          0.666              1.753              1.692
 Vibration    21          0.692              1.674              1.417
 Vibration    22          0.693              1.672              1.410
 Vibration    23          0.725              1.581              1.179
 Vibration    24          0.736              1.552              1.116
 Vibration    25          0.773              1.451              0.931
 Vibration    26          0.784              1.423              0.886
 Vibration    27          0.855              1.251              0.660
 Vibration    28          0.874              1.208              0.612
 Vibration    29          0.875              1.205              0.609
 Vibration    30          0.900              1.151              0.555
 Vibration    31          0.937              1.074              0.485

 Normal termination of Gaussian 09 at Tue Feb 19 19:27:54 2019.
