 Gaussian 09, Revision E.01,

 ----------------------------------------------------------------------
 # M062X/Gen 6D SCF=Tight INT(grid=ultrafine) OPT IOP(2/17=4) SCRF=(SMD
 ,Solvent=n-Pentadecane) maxdisk=2684354560
 ----------------------------------------------------------------------

 ----------------------------------------
 4Nitro_EtO.M062X_6-31pGd_opt_Pentadecane
 ----------------------------------------
 Symbolic Z-matrix:
 Charge = -1 Multiplicity = 1

 SCF Done:  E(RM062X) =  -1046.24827905     A.U. after   16 cycles
 SCF Done:  E(RM062X) =  -1046.28485315     A.U. after   15 cycles
 SCF Done:  E(RM062X) =  -1046.29626762     A.U. after   17 cycles
 SCF Done:  E(RM062X) =  -1046.30006545     A.U. after   17 cycles
 SCF Done:  E(RM062X) =  -1046.29933883     A.U. after   18 cycles
 SCF Done:  E(RM062X) =  -1046.30097244     A.U. after   13 cycles
 SCF Done:  E(RM062X) =  -1046.30117518     A.U. after   14 cycles
 SCF Done:  E(RM062X) =  -1046.29975892     A.U. after   17 cycles
 SCF Done:  E(RM062X) =  -1046.30148305     A.U. after   12 cycles
 SCF Done:  E(RM062X) =  -1046.30157619     A.U. after   15 cycles
 SCF Done:  E(RM062X) =  -1046.30180335     A.U. after   11 cycles
 SCF Done:  E(RM062X) =  -1046.30178539     A.U. after   13 cycles
 SCF Done:  E(RM062X) =  -1046.30180231     A.U. after   13 cycles
 SCF Done:  E(RM062X) =  -1046.30179754     A.U. after   12 cycles
 SCF Done:  E(RM062X) =  -1046.30180398     A.U. after   12 cycles
 SCF Done:  E(RM062X) =  -1046.30180384     A.U. after   11 cycles
 SCF Done:  E(RM062X) =  -1046.30180414     A.U. after   11 cycles
 SCF Done:  E(RM062X) =  -1046.30180418     A.U. after    9 cycles
 Optimization completed.
    -- Stationary point found.
 Normal termination of Gaussian 09 at Tue Feb 19 14:11:44 2019.
 Gaussian 09:  ES64L-G09RevE.01 30-Nov-2015

 ----------------------------------------------------------------------
 # M062X/Gen 6D SCF=Tight INT(grid=ultrafine) OPT IOP(2/17=4) SCRF=(SMD
 ,Solvent=n-Pentadecane) Freq=Noraman maxdisk=2684354560 geom=check gue
 ss=read IOP(2/17=4)
 ----------------------------------------------------------------------

 ----------------------------------------
 4Nitro_EtO.M062X_6-31pGd_opt_Pentadecane
 ----------------------------------------
 Structure from the checkpoint file:  "4Nitro_EtO.M062X_6-31pGd_opt_Pentadecane.chk"
 Charge = -1 Multiplicity = 1

 SCF Done:  E(RM062X) =  -1046.30180419     A.U. after    2 cycles
 Optimization completed.
    -- Stationary point found.
 Normal termination of Gaussian 09 at Tue Feb 19 14:13:22 2019.

 ----------------------------------------------------------------------
 #N Geom=AllCheck Guess=TCheck SCRF=Check Test GenChk RM062X/ChkBas Fre
 q
 ----------------------------------------------------------------------

 Structure from the checkpoint file:  "4Nitro_EtO.M062X_6-31pGd_opt_Pentadecane.chk"
 ----------------------------------------
 4Nitro_EtO.M062X_6-31pGd_opt_Pentadecane
 ----------------------------------------
 Charge = -1 Multiplicity = 1

                         Standard orientation:
 ---------------------------------------------------------------------
 Center     Atomic      Atomic             Coordinates (Angstroms)
 Number     Number       Type             X           Y           Z
 ---------------------------------------------------------------------
      1          6           0        3.982842   -0.259740   -0.003247
      2          6           0        3.205197    0.902343   -0.014251
      3          6           0        1.830652    0.792859   -0.009850
      4          6           0        1.199898   -0.477102    0.006472
      5          6           0        2.007683   -1.637567    0.017917
      6          6           0        3.387595   -1.520547    0.012709
      7          7           0       -0.171807   -0.476195    0.010130
      8          6           0       -1.021982   -1.580712    0.016551
      9          7           0       -2.327691   -1.238345    0.019755
     10          8           0       -0.626394   -2.749336    0.015647
     11          6           0       -3.349906   -2.264531    0.031030
     12          6           0       -4.731379   -1.628304   -0.065770
     13          6           0       -5.835555   -2.681468   -0.055030
     14          1           0        1.203785    1.680589   -0.019381
     15          1           0        1.537822   -2.610532    0.029621
     16          1           0       -0.614477    0.469397   -0.004607
     17          1           0       -2.622043   -0.244330    0.053115
     18          1           0       -3.273866   -2.865753    0.948704
     19          1           0       -3.189613   -2.953951   -0.808795
     20          1           0       -4.786000   -1.029298   -0.982652
     21          1           0       -4.865629   -0.927439    0.766602
     22          1           0       -5.731372   -3.372408   -0.900007
     23          1           0       -6.825494   -2.218581   -0.122007
     24          1           0       -5.806257   -3.275643    0.865995
     25          1           0        3.685250    1.874213   -0.026842
     26          1           0        4.011757   -2.406977    0.021141
     27          7           0        5.425063   -0.152162   -0.009516
     28          8           0        6.089294   -1.183476   -0.005605
     29          8           0        5.926756    0.967045   -0.018627
     30          8           0       -1.118706    2.119398   -0.041844
     31          6           0       -2.363247    2.316234    0.026930
     32          8           0       -3.243753    1.421176    0.108503
     33          6           0       -2.864529    3.766378    0.002920
     34          6           0       -1.769214    4.823861   -0.023327
     35          1           0       -3.515605    3.897753    0.875700
     36          1           0       -3.518463    3.862075   -0.873200
     37          1           0       -1.123844    4.740692    0.856458
     38          1           0       -2.198438    5.832804   -0.040427
     39          1           0       -1.132370    4.705621   -0.904903
 ---------------------------------------------------------------------

 SCF Done:  E(RM062X) =  -1046.30180418     A.U. after    1 cycles

 The electronic state is 1-A.
 Alpha  occ. eigenvalues --  -19.63143 -19.63128 -19.54993 -19.53066 -19.52542
 Alpha  occ. eigenvalues --  -14.96428 -14.72864 -14.70754 -10.61928 -10.57603
 Alpha  occ. eigenvalues --  -10.56596 -10.55270 -10.52618 -10.52566 -10.52277
 Alpha  occ. eigenvalues --  -10.50861 -10.50626 -10.49483 -10.49413 -10.48210
 Alpha  occ. eigenvalues --  -10.47914  -1.31561  -1.12720  -1.11140  -1.09135
 Alpha  occ. eigenvalues --   -0.99850  -0.99263  -0.96344  -0.92988  -0.84786
 Alpha  occ. eigenvalues --   -0.82671  -0.81185  -0.80269  -0.75150  -0.71207
 Alpha  occ. eigenvalues --   -0.67102  -0.66547  -0.64188  -0.62699  -0.60606
 Alpha  occ. eigenvalues --   -0.59556  -0.57415  -0.57033  -0.55601  -0.54798
 Alpha  occ. eigenvalues --   -0.51835  -0.50165  -0.48498  -0.47605  -0.47078
 Alpha  occ. eigenvalues --   -0.46882  -0.46257  -0.46165  -0.45467  -0.44049
 Alpha  occ. eigenvalues --   -0.43779  -0.42162  -0.42050  -0.41130  -0.39707
 Alpha  occ. eigenvalues --   -0.39550  -0.38846  -0.37460  -0.36660  -0.36131
 Alpha  occ. eigenvalues --   -0.35151  -0.34798  -0.34402  -0.34105  -0.33209
 Alpha  occ. eigenvalues --   -0.32849  -0.32827  -0.28497  -0.27468  -0.26005
 Alpha  occ. eigenvalues --   -0.25393  -0.25271  -0.24724  -0.21465
 Alpha virt. eigenvalues --   -0.00378   0.06203   0.06301   0.06738   0.07240
 Alpha virt. eigenvalues --    0.07795   0.08291   0.08476   0.08544   0.09261
 Alpha virt. eigenvalues --    0.09561   0.10104   0.10436   0.10593   0.11067

 Mulliken charges:
               1
     1  C   -0.046138
     2  C   -0.138401
     3  C   -0.642017
     4  C    0.464892
     5  C    0.575978
     6  C   -0.989045
     7  N   -0.655004
     8  C    0.833443
     9  N   -0.804867
    10  O   -0.618004
    11  C   -0.174682
    12  C   -0.340346
    13  C   -0.802438
    14  H    0.281623
    15  H    0.276407
    16  H    0.515836
    17  H    0.528027
    18  H    0.216712
    19  H    0.220041
    20  H    0.234692
    21  H    0.240223
    22  H    0.207431
    23  H    0.208826
    24  H    0.208069
    25  H    0.254039
    26  H    0.252062
    27  N   -0.327861
    28  O   -0.075570
    29  O   -0.083623
    30  O   -0.690940
    31  C    0.683025
    32  O   -0.647571
    33  C   -0.499261
    34  C   -0.723947
    35  H    0.217879
    36  H    0.218428
    37  H    0.216304
    38  H    0.187341
    39  H    0.218436
 Sum of Mulliken charges =  -1.00000

 Dipole moment (field-independent basis, Debye):
    X=             -3.7780    Y=             -0.3153    Z=             -0.1017  Tot=              3.7925
 Quadrupole moment (field-independent basis, Debye-Ang):
   XX=           -208.0986   YY=           -150.2716   ZZ=           -129.4259
   XY=              6.9798   XZ=              0.8636   YZ=             -0.0162

  Exact polarizability: 362.684  13.903 241.443  -1.303  -1.345 135.473
 Approx polarizability: 327.956   7.587 260.552  -1.683  -1.409 159.680

                      1                      2                      3
                      A                      A                      A
 Frequencies --     25.1165                29.6996                42.1818
 Red. masses --      4.8529                 3.4751                 3.6296
 Frc consts  --      0.0018                 0.0018                 0.0038
 IR Inten    --      0.2175                 0.0820                 0.3019

                      4                      5                      6
                      A                      A                      A
 Frequencies --     49.8680                53.4215                62.7505
 Red. masses --      3.0217                 5.5217                 4.4071
 Frc consts  --      0.0044                 0.0093                 0.0102
 IR Inten    --      0.9512                 1.5858                 1.7275

                      7                      8                      9
                      A                      A                      A
 Frequencies --     65.8624                72.1397                77.6684
 Red. masses --      7.5369                 3.4841                 2.3743
 Frc consts  --      0.0193                 0.0107                 0.0084
 IR Inten    --      2.5676                 1.5854                 1.7325

                     10                     11                     12
                      A                      A                      A
 Frequencies --     84.8972                85.5031               111.9998
 Red. masses --      4.4999                 5.4721                 6.1987
 Frc consts  --      0.0191                 0.0236                 0.0458
 IR Inten    --      3.2332                 2.6740                 9.6834

                     13                     14                     15
                      A                      A                      A
 Frequencies --    139.1636               154.4123               183.9297
 Red. masses --      4.5354                 7.4501                 4.9002
 Frc consts  --      0.0518                 0.1047                 0.0977
 IR Inten    --      0.8345                34.0619                16.7823

                     16                     17                     18
                      A                      A                      A
 Frequencies --    194.0578               225.6447               234.9470
 Red. masses --      3.6799                 6.1458                 1.1094
 Frc consts  --      0.0816                 0.1844                 0.0361
 IR Inten    --      6.1098                 0.2832                 0.5526

                     19                     20                     21
                      A                      A                      A
 Frequencies --    240.3185               258.0198               302.0427
 Red. masses --      1.1462                 5.3465                 4.1846
 Frc consts  --      0.0390                 0.2097                 0.2249
 IR Inten    --      0.0020                 4.9106                20.3001

                     22                     23                     24
                      A                      A                      A
 Frequencies --    303.1156               349.2970               363.4375
 Red. masses --      6.6559                 4.7716                 5.8481
 Frc consts  --      0.3603                 0.3430                 0.4551
 IR Inten    --      0.6325                17.9873                 0.5644

                     25                     26                     27
                      A                      A                      A
 Frequencies --    411.6261               428.5402               502.4811
 Red. masses --      6.2242                 3.1655                 2.9142
 Frc consts  --      0.6213                 0.3425                 0.4335
 IR Inten    --      7.6799                 0.0011                13.5709

                     28                     29                     30
                      A                      A                      A
 Frequencies --    520.5898               522.9529               546.5205
 Red. masses --      5.4977                 4.9138                 7.5253
 Frc consts  --      0.8779                 0.7918                 1.3243
 IR Inten    --     13.4730                21.3485                 3.9425

                     31                     32                     33
                      A                      A                      A
 Frequencies --    585.8803               636.0838               659.3705
 Red. masses --      1.9883                 7.1421                 4.6274
 Frc consts  --      0.4021                 1.7026                 1.1854
 IR Inten    --      1.5271                 2.7978                54.9159

                     34                     35                     36
                      A                      A                      A
 Frequencies --    687.7870               706.8730               749.2425
 Red. masses --      6.9786                 3.7025                 1.1574
 Frc consts  --      1.9450                 1.0900                 0.3828
 IR Inten    --      6.4599                 4.5503                 9.2843

                     37                     38                     39
                      A                      A                      A
 Frequencies --    768.2059               772.4586               780.3571
 Red. masses --      3.2953                 8.3997                 6.7295
 Frc consts  --      1.1458                 2.9530                 2.4144
 IR Inten    --     33.0738                34.6112                 6.4015

                     40                     41                     42
                      A                      A                      A
 Frequencies --    817.9151               826.8493               855.8812
 Red. masses --      1.2934                 1.4101                 1.3798
 Frc consts  --      0.5098                 0.5680                 0.5955
 IR Inten    --      3.7914                16.0563                15.5689

                     43                     44                     45
                      A                      A                      A
 Frequencies --    856.2125               886.0149               890.1714
 Red. masses --      4.2247                 1.7184                 4.5049
 Frc consts  --      1.8248                 0.7948                 2.1032
 IR Inten    --     53.6237                47.8649                38.7427

                     46                     47                     48
                      A                      A                      A
 Frequencies --    898.4429               900.6773               930.7936
 Red. masses --      4.8941                 1.2062                 1.7415
 Frc consts  --      2.3276                 0.5765                 0.8890
 IR Inten    --      3.4124                 5.0699                 6.2483

                     49                     50                     51
                      A                      A                      A
 Frequencies --    972.2293              1004.7573              1020.1874
 Red. masses --      1.0861                 1.2612                 1.3025
 Frc consts  --      0.6048                 0.7502                 0.7987
 IR Inten    --    107.6816                 3.1991                 3.9026

                     52                     53                     54
                      A                      A                      A
 Frequencies --   1026.3653              1027.3405              1050.9214
 Red. masses --      2.8693                 1.7275                 3.9546
 Frc consts  --      1.7809                 1.0742                 2.5733
 IR Inten    --     39.8243                16.0939                46.9575

                     55                     56                     57
                      A                      A                      A
 Frequencies --   1083.5127              1110.1504              1114.7249
 Red. masses --      2.5939                 1.7630                 2.3741
 Frc consts  --      1.7942                 1.2802                 1.7382
 IR Inten    --     13.6901                 0.7338                 7.7851

                     58                     59                     60
                      A                      A                      A
 Frequencies --   1149.6261              1152.0477              1162.4068
 Red. masses --      2.0214                 1.6565                 1.7179
 Frc consts  --      1.5740                 1.2954                 1.3676
 IR Inten    --    637.0684                13.4790                 0.4742

                     61                     62                     63
                      A                      A                      A
 Frequencies --   1182.0427              1189.9824              1226.4914
 Red. masses --      1.6522                 3.9797                 1.5206
 Frc consts  --      1.3602                 3.3204                 1.3477
 IR Inten    --      1.3349                 1.3231                20.3892

                     64                     65                     66
                      A                      A                      A
 Frequencies --   1279.3680              1291.0217              1305.1725
 Red. masses --      1.1913                 1.1833                 1.7888
 Frc consts  --      1.1488                 1.1620                 1.7954
 IR Inten    --      4.1612                 0.0676               975.5950

                     67                     68                     69
                      A                      A                      A
 Frequencies --   1328.8063              1331.3148              1339.9990
 Red. masses --      1.1947                 1.2862                 1.6496
 Frc consts  --      1.2429                 1.3431                 1.7452
 IR Inten    --      2.9478                18.7450                38.0462

                     70                     71                     72
                      A                      A                      A
 Frequencies --   1349.6098              1368.9193              1395.5122
 Red. masses --      1.8546                 2.6847                 5.0385
 Frc consts  --      1.9903                 2.9642                 5.7813
 IR Inten    --    411.2392               492.2305               712.3750

                     73                     74                     75
                      A                      A                      A
 Frequencies --   1424.5290              1426.7645              1433.8486
 Red. masses --      1.4585                 1.3198                 1.7417
 Frc consts  --      1.7438                 1.5830                 2.1097
 IR Inten    --    132.3529                34.8421               175.7327

                     76                     77                     78
                      A                      A                      A
 Frequencies --   1440.6331              1474.6941              1483.2850
 Red. masses --      3.7007                 2.5198                 3.5980
 Frc consts  --      4.5252                 3.2286                 4.6641
 IR Inten    --    378.9434               307.0499                 9.6476

                     79                     80                     81
                      A                      A                      A
 Frequencies --   1487.2555              1503.5063              1512.0536
 Red. masses --      1.4702                 1.0729                 1.0407
 Frc consts  --      1.9160                 1.4289                 1.4019
 IR Inten    --     86.5771                 7.9293                 7.7171

                     82                     83                     84
                      A                      A                      A
 Frequencies --   1519.4321              1523.2951              1523.8264
 Red. masses --      1.0401                 1.0721                 1.0994
 Frc consts  --      1.4148                 1.4657                 1.5041
 IR Inten    --      8.7868                19.9717                42.3921

                     85                     86                     87
                      A                      A                      A
 Frequencies --   1538.9282              1563.5998              1607.4936
 Red. masses --      1.0867                 2.8068                 4.3510
 Frc consts  --      1.5164                 4.0431                 6.6243
 IR Inten    --     13.6470               188.6483               286.9031

                     88                     89                     90
                      A                      A                      A
 Frequencies --   1630.8621              1666.2821              1670.9318
 Red. masses --      2.6818                 3.8189                 4.5579
 Frc consts  --      4.2026                 6.2472                 7.4977
 IR Inten    --    140.9382               130.0678              1130.1460

                     91                     92                     93
                      A                      A                      A
 Frequencies --   1690.7924              1711.8336              1787.5750
 Red. masses --      4.3933                 3.2401                 3.0111
 Frc consts  --      7.3998                 5.5940                 5.6689
 IR Inten    --    342.7093               597.8834               466.0298

                     94                     95                     96
                      A                      A                      A
 Frequencies --   3026.3992              3046.8804              3068.4352
 Red. masses --      1.0988                 1.0620                 1.0369
 Frc consts  --      5.9296                 5.8090                 5.7520
 IR Inten    --   1313.3297               137.5448                50.3749

                     97                     98                     99
                      A                      A                      A
 Frequencies --   3072.8796              3078.4804              3078.8245
 Red. masses --      1.0494                 1.0701                 1.0816
 Frc consts  --      5.8384                 5.9751                 6.0405
 IR Inten    --     59.0849                39.8757                19.0993

                    100                    101                    102
                      A                      A                      A
 Frequencies --   3085.1646              3111.5917              3118.9031
 Red. masses --      1.0608                 1.1007                 1.1029
 Frc consts  --      5.9489                 6.2790                 6.3209
 IR Inten    --     26.3873                14.8782                 0.9240

                    103                    104                    105
                      A                      A                      A
 Frequencies --   3140.9340              3142.6808              3145.3942
 Red. masses --      1.1039                 1.0980                 1.1012
 Frc consts  --      6.4164                 6.3892                 6.4190
 IR Inten    --     78.3386                55.3377                28.8293

                    106                    107                    108
                      A                      A                      A
 Frequencies --   3163.0220              3172.5769              3235.0445
 Red. masses --      1.1027                 1.0927                 1.0922
 Frc consts  --      6.4998                 6.4798                 6.7344
 IR Inten    --     42.2836              1911.6322                27.5364

                    109                    110                    111
                      A                      A                      A
 Frequencies --   3262.4788              3264.9739              3308.2201
 Red. masses --      1.0915                 1.0936                 1.0919
 Frc consts  --      6.8451                 6.8687                 7.0407
 IR Inten    --      0.4051                 0.4412                 7.7322

 - Thermochemistry -
 -------------------
 Temperature   298.150 Kelvin.  Pressure   1.00000 Atm.
 Atom     1 has atomic number  6 and mass  12.00000

 Molecular mass:   296.12465 amu.
 Principal axes and moments of inertia in atomic units:
                           1         2         3
     Eigenvalues --  4551.96171********************
           X            0.99994   0.01066   0.00039
           Y           -0.01066   0.99994  -0.00014
           Z           -0.00040   0.00013   1.00000
 This molecule is an asymmetric top.
 Rotational symmetry number  1.
 Warning -- assumption of classical behavior for rotation
           may cause significant error
 Rotational temperatures (Kelvin)      0.01903     0.00659     0.00491
 Rotational constants (GHZ):           0.39648     0.13727     0.10231
 Zero-point vibrational energy     828164.2 (Joules/Mol)
                                  197.93599 (Kcal/Mol)
 Warning -- explicit consideration of  31 degrees of freedom as
           vibrations may cause significant error
 Vibrational temperatures:     36.14    42.73    60.69    71.75    76.86
          (Kelvin)             90.28    94.76   103.79   111.75   122.15
                              123.02   161.14   200.23   222.16   264.63
                              279.21   324.65   338.04   345.76   371.23
                              434.57   436.12   502.56   522.90   592.24
                              616.57   722.96   749.01   752.41   786.32
                              842.95   915.18   948.69   989.57  1017.03
                             1077.99  1105.28  1111.39  1122.76  1176.80
                             1189.65  1231.42  1231.90  1274.78  1280.76
                             1292.66  1295.87  1339.20  1398.82  1445.62
                             1467.82  1476.71  1478.11  1512.04  1558.93
                             1597.26  1603.84  1654.05  1657.54  1672.44
                             1700.69  1712.12  1764.65  1840.72  1857.49
                             1877.85  1911.85  1915.46  1927.96  1941.79
                             1969.57  2007.83  2049.58  2052.79  2062.99
                             2072.75  2121.75  2134.11  2139.83  2163.21
                             2175.51  2186.12  2191.68  2192.44  2214.17
                             2249.67  2312.82  2346.44  2397.41  2404.10
                             2432.67  2462.94  2571.92  4354.31  4383.78
                             4414.79  4421.18  4429.24  4429.74  4438.86
                             4476.88  4487.40  4519.10  4521.61  4525.52
                             4550.88  4564.62  4654.50  4693.97  4697.56
                             4759.78

 Zero-point correction=                           0.315431 (Hartree/Particle)
 Thermal correction to Energy=                    0.337508
 Thermal correction to Enthalpy=                  0.338452
 Thermal correction to Gibbs Free Energy=         0.260319
 Sum of electronic and zero-point Energies=          -1045.986373
 Sum of electronic and thermal Energies=             -1045.964296
 Sum of electronic and thermal Enthalpies=           -1045.963352
 Sum of electronic and thermal Free Energies=        -1046.041486

                     E (Thermal)             CV                S
                      KCal/Mol        Cal/Mol-Kelvin    Cal/Mol-Kelvin
 Total                  211.789             77.517            164.445
 Electronic               0.000              0.000              0.000
 Translational            0.889              2.981             42.954
 Rotational               0.889              2.981             35.311
 Vibrational            210.012             71.556             86.180
 Vibration     1          0.593              1.985              6.182
 Vibration     2          0.593              1.984              5.849
 Vibration     3          0.595              1.980              5.154
 Vibration     4          0.595              1.978              4.823
 Vibration     5          0.596              1.976              4.687
 Vibration     6          0.597              1.972              4.369
 Vibration     7          0.597              1.971              4.273
 Vibration     8          0.598              1.967              4.094
 Vibration     9          0.599              1.964              3.949
 Vibration    10          0.601              1.960              3.774
 Vibration    11          0.601              1.959              3.760
 Vibration    12          0.607              1.940              3.234
 Vibration    13          0.615              1.914              2.815
 Vibration    14          0.620              1.898              2.617
 Vibration    15          0.631              1.862              2.288
 Vibration    16          0.635              1.848              2.189
 Vibration    17          0.650              1.802              1.913
 Vibration    18          0.655              1.787              1.841
 Vibration    19          0.657              1.779              1.801
 Vibration    20          0.667              1.749              1.675
 Vibration    21          0.694              1.670              1.406
 Vibration    22          0.695              1.668              1.400
 Vibration    23          0.727              1.577              1.169
 Vibration    24          0.737              1.548              1.107
 Vibration    25          0.776              1.445              0.921
 Vibration    26          0.790              1.408              0.863
 Vibration    27          0.858              1.245              0.652
 Vibration    28          0.876              1.204              0.609
 Vibration    29          0.878              1.199              0.603
 Vibration    30          0.902              1.147              0.551
 Vibration    31          0.943              1.062              0.475

 Normal termination of Gaussian 09 at Tue Feb 19 15:09:28 2019.
