 Gaussian 09, Revision E.01,

 ----------------------------------------------------------------------
 # M062X/Gen 6D SCF=Tight INT(grid=ultrafine) OPT IOP(2/17=4) SCRF=(SMD
 ,Solvent=n-Pentadecane) maxdisk=2684354560
 ----------------------------------------------------------------------

 -------------------------------------------
 4Nitro_EtO_c3.M062X_6-31pGd_opt_Pentadecane
 -------------------------------------------
 Symbolic Z-matrix:
 Charge = -1 Multiplicity = 1

 SCF Done:  E(RM062X) =  -1046.30244571     A.U. after   16 cycles
 SCF Done:  E(RM062X) =  -1046.30253258     A.U. after   14 cycles
 SCF Done:  E(RM062X) =  -1046.30192283     A.U. after   17 cycles
 SCF Done:  E(RM062X) =  -1046.30255835     A.U. after   17 cycles
 SCF Done:  E(RM062X) =  -1046.30255567     A.U. after   13 cycles
 SCF Done:  E(RM062X) =  -1046.30255235     A.U. after   13 cycles
 SCF Done:  E(RM062X) =  -1046.30256999     A.U. after   13 cycles
 SCF Done:  E(RM062X) =  -1046.30257066     A.U. after   10 cycles
 SCF Done:  E(RM062X) =  -1046.30257124     A.U. after   11 cycles
 SCF Done:  E(RM062X) =  -1046.30257156     A.U. after   10 cycles
 SCF Done:  E(RM062X) =  -1046.30257208     A.U. after    9 cycles
 SCF Done:  E(RM062X) =  -1046.30257225     A.U. after    9 cycles
 SCF Done:  E(RM062X) =  -1046.30257240     A.U. after    9 cycles
 SCF Done:  E(RM062X) =  -1046.30257256     A.U. after   10 cycles
 SCF Done:  E(RM062X) =  -1046.30257273     A.U. after   10 cycles
 SCF Done:  E(RM062X) =  -1046.30257280     A.U. after   10 cycles
 SCF Done:  E(RM062X) =  -1046.30257290     A.U. after   10 cycles
 SCF Done:  E(RM062X) =  -1046.30257292     A.U. after    8 cycles
 SCF Done:  E(RM062X) =  -1046.30257296     A.U. after    8 cycles
 Optimization completed.
    -- Stationary point found.
 Normal termination of Gaussian 09 at Tue Apr  9 13:18:12 2019.
 Gaussian 09:  ES64L-G09RevE.01 30-Nov-2015

 ----------------------------------------------------------------------
 # M062X/Gen 6D SCF=Tight INT(grid=ultrafine) SCRF=(SMD,Solvent=n-Penta
 decane) Freq=Noraman maxdisk=2684354560 geom=check guess=read IOP(2/17
 =4)
 ----------------------------------------------------------------------

 -------------------------------------------
 4Nitro_EtO_c3.M062X_6-31pGd_opt_Pentadecane
 -------------------------------------------
 Structure from the checkpoint file:  "4Nitro_EtO_c3.M062X_6-31pGd_opt_Pentadecane.chk"
 Charge = -1 Multiplicity = 1

                         Standard orientation:
 ---------------------------------------------------------------------
 Center     Atomic      Atomic             Coordinates (Angstroms)
 Number     Number       Type             X           Y           Z
 ---------------------------------------------------------------------
      1          6           0       -3.860697   -0.332744    0.057448
      2          6           0       -3.142632    0.865981    0.108191
      3          6           0       -1.767711    0.832058    0.008363
      4          6           0       -1.077511   -0.397345   -0.143200
      5          6           0       -1.825747   -1.595993   -0.192525
      6          6           0       -3.206369   -1.555015   -0.091642
      7          7           0        0.289186   -0.321517   -0.231585
      8          6           0        1.193048   -1.372611   -0.370103
      9          7           0        2.476726   -0.951591   -0.417159
     10          8           0        0.857560   -2.557408   -0.447928
     11          6           0        3.560686   -1.903112   -0.531493
     12          6           0        3.962295   -2.527035    0.806021
     13          6           0        5.112079   -3.517432    0.643684
     14          1           0       -1.186968    1.750087    0.045981
     15          1           0       -1.309706   -2.538118   -0.309357
     16          1           0        0.685607    0.643334   -0.176930
     17          1           0        2.715061    0.051826   -0.316303
     18          1           0        4.415002   -1.371034   -0.965327
     19          1           0        3.265122   -2.694168   -1.230575
     20          1           0        3.085781   -3.029537    1.230945
     21          1           0        4.244667   -1.723806    1.497668
     22          1           0        4.832330   -4.336022   -0.030111
     23          1           0        5.399492   -3.959570    1.603448
     24          1           0        5.998954   -3.027886    0.223165
     25          1           0       -3.668273    1.806791    0.224975
     26          1           0       -3.785066   -2.471112   -0.128487
     27          7           0       -5.303180   -0.304253    0.160926
     28          8           0       -5.914504   -1.366634    0.113799
     29          8           0       -5.857853    0.781811    0.291843
     30          8           0        1.129571    2.298191   -0.055353
     31          6           0        2.362885    2.566304   -0.062553
     32          8           0        3.295212    1.728689   -0.167475
     33          6           0        2.775654    4.038182    0.066453
     34          6           0        1.615425    5.014292    0.205890
     35          1           0        3.386708    4.278183   -0.812539
     36          1           0        3.452216    4.108051    0.927202
     37          1           0        0.951170    4.957663   -0.661575
     38          1           0        1.977053    6.045521    0.297008
     39          1           0        1.013428    4.780958    1.089236
 ---------------------------------------------------------------------

 SCF Done:  E(RM062X) =  -1046.30257296     A.U. after    1 cycles

 The electronic state is 1-A.
 Alpha  occ. eigenvalues --  -19.63167 -19.63151 -19.55014 -19.53063 -19.52538
 Alpha  occ. eigenvalues --  -14.96453 -14.72867 -14.70782 -10.62043 -10.57602
 Alpha  occ. eigenvalues --  -10.56627 -10.55306 -10.52652 -10.52599 -10.52215
 Alpha  occ. eigenvalues --  -10.50914 -10.50664 -10.49345 -10.49086 -10.48190
 Alpha  occ. eigenvalues --  -10.47885  -1.31589  -1.12746  -1.11176  -1.09140
 Alpha  occ. eigenvalues --   -0.99890  -0.99269  -0.96322  -0.93009  -0.84742
 Alpha  occ. eigenvalues --   -0.82462  -0.81220  -0.80257  -0.75214  -0.71148
 Alpha  occ. eigenvalues --   -0.67134  -0.66496  -0.64565  -0.62408  -0.60214
 Alpha  occ. eigenvalues --   -0.59547  -0.57711  -0.57440  -0.56160  -0.54882
 Alpha  occ. eigenvalues --   -0.51815  -0.48626  -0.48502  -0.47277  -0.47082
 Alpha  occ. eigenvalues --   -0.47062  -0.46820  -0.46185  -0.45333  -0.43933
 Alpha  occ. eigenvalues --   -0.43596  -0.43014  -0.41844  -0.40473  -0.39666
 Alpha  occ. eigenvalues --   -0.39456  -0.38716  -0.37681  -0.36703  -0.36212
 Alpha  occ. eigenvalues --   -0.36022  -0.34447  -0.34371  -0.34095  -0.33230
 Alpha  occ. eigenvalues --   -0.32876  -0.32861  -0.28566  -0.27498  -0.25904
 Alpha  occ. eigenvalues --   -0.25354  -0.25266  -0.24705  -0.21491
 Alpha virt. eigenvalues --   -0.00404   0.06168   0.06273   0.06778   0.07234
 Alpha virt. eigenvalues --    0.07642   0.07909   0.08416   0.08590   0.09189
 Alpha virt. eigenvalues --    0.09618   0.10151   0.10319   0.10624   0.11289

 Mulliken charges:
               1
     1  C    0.013456
     2  C   -0.170859
     3  C   -0.563356
     4  C    0.372173
     5  C    0.435425
     6  C   -0.850606
     7  N   -0.675516
     8  C    0.716338
     9  N   -0.637514
    10  O   -0.623461
    11  C   -0.374037
    12  C   -0.130062
    13  C   -0.838042
    14  H    0.280376
    15  H    0.275491
    16  H    0.516699
    17  H    0.527974
    18  H    0.216372
    19  H    0.230399
    20  H    0.229227
    21  H    0.218643
    22  H    0.211553
    23  H    0.205961
    24  H    0.207178
    25  H    0.254289
    26  H    0.252126
    27  N   -0.322283
    28  O   -0.078636
    29  O   -0.085833
    30  O   -0.691650
    31  C    0.693669
    32  O   -0.645545
    33  C   -0.510869
    34  C   -0.717480
    35  H    0.218531
    36  H    0.218381
    37  H    0.217416
    38  H    0.186913
    39  H    0.217157
 Sum of Mulliken charges =  -1.00000

 Dipole moment (field-independent basis, Debye):
    X=              2.9370    Y=             -0.9373    Z=              0.5364  Tot=              3.1292
 Quadrupole moment (field-independent basis, Debye-Ang):
   XX=           -208.0453   YY=           -150.4746   ZZ=           -130.2222
   XY=             -9.9015   XZ=              3.4996   YZ=             -1.0484

  Exact polarizability: 359.939 -10.679 240.948  -9.822   7.017 139.388
 Approx polarizability: 330.532  -3.772 259.095 -11.002   8.962 161.375

                      1                      2                      3
                      A                      A                      A
 Frequencies --     21.9171                26.7923                33.2319
 Red. masses --      2.9289                 5.5431                 5.4818
 Frc consts  --      0.0008                 0.0023                 0.0036
 IR Inten    --      0.4301                 0.0525                 0.0179

                      4                      5                      6
                      A                      A                      A
 Frequencies --     39.8946                52.3646                61.6981
 Red. masses --      3.9377                 5.9958                11.2182
 Frc consts  --      0.0037                 0.0097                 0.0252
 IR Inten    --      0.3876                 1.3550                 0.2786

                      7                      8                      9
                      A                      A                      A
 Frequencies --     63.6283                69.3956                83.1985
 Red. masses --      2.8725                 4.4870                 5.2268
 Frc consts  --      0.0069                 0.0127                 0.0213
 IR Inten    --      2.0104                 0.3274                 3.9009

                     10                     11                     12
                      A                      A                      A
 Frequencies --     84.6172                91.1408               112.2875
 Red. masses --      4.8418                 2.2772                 3.9044
 Frc consts  --      0.0204                 0.0111                 0.0290
 IR Inten    --      3.8624                 6.9339                 8.0090

                     13                     14                     15
                      A                      A                      A
 Frequencies --    135.1110               152.5595               159.6328
 Red. masses --      4.4942                 8.0237                 6.0243
 Frc consts  --      0.0483                 0.1100                 0.0904
 IR Inten    --      1.9457                 1.9656                52.3656

                     16                     17                     18
                      A                      A                      A
 Frequencies --    232.3938               233.1155               243.6680
 Red. masses --      1.1839                 2.9239                 1.4357
 Frc consts  --      0.0377                 0.0936                 0.0502
 IR Inten    --      0.5733                 1.2420                 0.7584

                     19                     20                     21
                      A                      A                      A
 Frequencies --    248.9918               291.9272               302.5566
 Red. masses --      3.8457                 3.6318                 4.0438
 Frc consts  --      0.1405                 0.1824                 0.2181
 IR Inten    --      0.1764                 1.7345                20.6648

                     22                     23                     24
                      A                      A                      A
 Frequencies --    304.5616               325.0385               372.3212
 Red. masses --      5.2241                 3.7967                 6.4626
 Frc consts  --      0.2855                 0.2363                 0.5278
 IR Inten    --      1.6902                14.3028                 2.2183

                     25                     26                     27
                      A                      A                      A
 Frequencies --    425.7970               428.8360               502.6075
 Red. masses --      7.1608                 3.1823                 2.9191
 Frc consts  --      0.7649                 0.3448                 0.4345
 IR Inten    --     20.1584                 0.1717                13.2687

                     28                     29                     30
                      A                      A                      A
 Frequencies --    520.3240               542.8512               546.3424
 Red. masses --      5.6919                 5.5113                 6.5851
 Frc consts  --      0.9079                 0.9569                 1.1581
 IR Inten    --     18.4972                 1.6964                 9.2604

                     31                     32                     33
                      A                      A                      A
 Frequencies --    584.3632               634.4010               659.7147
 Red. masses --      1.9512                 6.9504                 4.6971
 Frc consts  --      0.3926                 1.6481                 1.2045
 IR Inten    --      0.6704                 2.9761                56.5444

                     34                     35                     36
                      A                      A                      A
 Frequencies --    693.3112               706.8476               730.8731
 Red. masses --      5.9423                 3.6603                 1.7362
 Frc consts  --      1.6829                 1.0775                 0.5464
 IR Inten    --     10.4734                 5.2094                 8.1216

                     37                     38                     39
                      A                      A                      A
 Frequencies --    765.7076               773.0014               774.3464
 Red. masses --      4.9886                 7.9067                 1.7472
 Frc consts  --      1.7233                 2.7836                 0.6172
 IR Inten    --     41.0960                36.5667                 1.6084

                     40                     41                     42
                      A                      A                      A
 Frequencies --    821.4881               834.9272               854.6439
 Red. masses --      1.4371                 1.2452                 1.4436
 Frc consts  --      0.5714                 0.5115                 0.6212
 IR Inten    --      3.4848                18.7166                14.5351

                     43                     44                     45
                      A                      A                      A
 Frequencies --    857.6588               885.1456               888.7705
 Red. masses --      3.4097                 1.7427                 3.0413
 Frc consts  --      1.4777                 0.8045                 1.4154
 IR Inten    --     48.3615                49.7523                36.3916

                     46                     47                     48
                      A                      A                      A
 Frequencies --    893.8090               897.5191               910.9668
 Red. masses --      1.7148                 3.3808                 2.0557
 Frc consts  --      0.8071                 1.6046                 1.0051
 IR Inten    --      6.0266                 9.9768                 9.8485

                     49                     50                     51
                      A                      A                      A
 Frequencies --    978.2162              1004.7608              1018.5007
 Red. masses --      1.0888                 1.2574                 1.3115
 Frc consts  --      0.6139                 0.7479                 0.8015
 IR Inten    --    111.2067                 5.7232                 4.3704

                     52                     53                     54
                      A                      A                      A
 Frequencies --   1021.1770              1025.8199              1030.2165
 Red. masses --      3.0369                 1.8431                 2.5662
 Frc consts  --      1.8659                 1.1427                 1.6047
 IR Inten    --     71.1695                16.9858                13.8726

                     55                     56                     57
                      A                      A                      A
 Frequencies --   1069.4458              1108.8048              1113.4193
 Red. masses --      2.5842                 1.7788                 2.3656
 Frc consts  --      1.7414                 1.2885                 1.7278
 IR Inten    --      0.8132                 0.6405                 7.7289

                     58                     59                     60
                      A                      A                      A
 Frequencies --   1138.8387              1145.6654              1150.3382
 Red. masses --      2.1738                 1.5284                 1.5567
 Frc consts  --      1.6611                 1.1820                 1.2137
 IR Inten    --     76.5968               360.8396               207.1988

                     61                     62                     63
                      A                      A                      A
 Frequencies --   1181.1127              1191.3461              1221.2812
 Red. masses --      3.9367                 1.9124                 1.5465
 Frc consts  --      3.2357                 1.5992                 1.3591
 IR Inten    --      3.9830                10.0354                12.0849

                     64                     65                     66
                      A                      A                      A
 Frequencies --   1287.7531              1290.0716              1310.6843
 Red. masses --      1.1837                 1.2269                 1.8943
 Frc consts  --      1.1565                 1.2031                 1.9173
 IR Inten    --      0.0893                25.2710               951.3093

                     67                     68                     69
                      A                      A                      A
 Frequencies --   1331.4772              1337.9929              1342.2027
 Red. masses --      1.4157                 1.6264                 1.6519
 Frc consts  --      1.4787                 1.7155                 1.7534
 IR Inten    --    188.5142                40.9250               551.2075

                     70                     71                     72
                      A                      A                      A
 Frequencies --   1350.2107              1362.3146              1395.0150
 Red. masses --      1.2030                 2.7182                 4.8004
 Frc consts  --      1.2922                 2.9723                 5.5041
 IR Inten    --      0.6102               227.3365               729.4892

                     73                     74                     75
                      A                      A                      A
 Frequencies --   1424.0252              1424.7817              1428.5667
 Red. masses --      1.3434                 1.4761                 1.3523
 Frc consts  --      1.6050                 1.7655                 1.6260
 IR Inten    --     63.3247                39.4894                26.9023

                     76                     77                     78
                      A                      A                      A
 Frequencies --   1438.0705              1474.4469              1481.9851
 Red. masses --      5.5732                 2.1097                 3.7236
 Frc consts  --      6.7907                 2.7022                 4.8183
 IR Inten    --    624.1729               272.1108                 9.8938

                     79                     80                     81
                      A                      A                      A
 Frequencies --   1486.5657              1494.3151              1510.3274
 Red. masses --      1.6434                 1.0956                 1.0432
 Frc consts  --      2.1397                 1.4414                 1.4021
 IR Inten    --    119.7841                 8.8465                 7.7361

                     82                     83                     84
                      A                      A                      A
 Frequencies --   1510.3718              1519.5847              1523.4356
 Red. masses --      1.0659                 1.0404                 1.1108
 Frc consts  --      1.4326                 1.4154                 1.5189
 IR Inten    --      0.2412                11.0258                68.8504

                     85                     86                     87
                      A                      A                      A
 Frequencies --   1527.3973              1562.4533              1607.3978
 Red. masses --      1.0755                 2.8789                 4.3301
 Frc consts  --      1.4783                 4.1409                 6.5917
 IR Inten    --      9.9158               185.8175               286.8091

                     88                     89                     90
                      A                      A                      A
 Frequencies --   1629.3420              1666.3643              1672.7656
 Red. masses --      2.6821                 4.3436                 4.5997
 Frc consts  --      4.1952                 7.1062                 7.5832
 IR Inten    --    127.5397               300.1579               837.1071

                     91                     92                     93
                      A                      A                      A
 Frequencies --   1693.0443              1712.5329              1787.0913
 Red. masses --      3.8542                 3.2663                 2.9551
 Frc consts  --      6.5091                 5.6439                 5.5605
 IR Inten    --    371.7330               603.6499               415.9618

                     94                     95                     96
                      A                      A                      A
 Frequencies --   3018.3373              3066.5320              3072.9426
 Red. masses --      1.0994                 1.0364                 1.0495
 Frc consts  --      5.9011                 5.7421                 5.8393
 IR Inten    --   1458.6318                43.5780                61.4682

                     97                     98                     99
                      A                      A                      A
 Frequencies --   3074.9872              3078.6687              3084.1769
 Red. masses --      1.0602                 1.0511                 1.0605
 Frc consts  --      5.9064                 5.8697                 5.9437
 IR Inten    --     12.9107                20.9201                95.8626

                    100                    101                    102
                      A                      A                      A
 Frequencies --   3110.6548              3112.4434              3128.2567
 Red. masses --      1.1013                 1.1011                 1.1047
 Frc consts  --      6.2786                 6.2848                 6.3696
 IR Inten    --     15.0963                10.6989                 2.2336

                    103                    104                    105
                      A                      A                      A
 Frequencies --   3142.1523              3143.0603              3143.6990
 Red. masses --      1.1012                 1.0983                 1.1058
 Frc consts  --      6.4055                 6.3927                 6.4388
 IR Inten    --     50.2695                50.7734                91.4605

                    106                    107                    108
                      A                      A                      A
 Frequencies --   3162.3435              3186.5170              3228.1306
 Red. masses --      1.1026                 1.0926                 1.0927
 Frc consts  --      6.4966                 6.5366                 6.7088
 IR Inten    --     41.6405              1925.5631                31.5173

                    109                    110                    111
                      A                      A                      A
 Frequencies --   3259.4335              3263.7559              3298.9763
 Red. masses --      1.0917                 1.0936                 1.0930
 Frc consts  --      6.8333                 6.8634                 7.0087
 IR Inten    --      0.5232                 0.4137                 8.2524

 - Thermochemistry -
 -------------------
 Temperature   298.150 Kelvin.  Pressure   1.00000 Atm.
 Atom     1 has atomic number  6 and mass  12.00000

 Molecular mass:   296.12465 amu.
 Principal axes and moments of inertia in atomic units:
                           1         2         3
     Eigenvalues --  5301.35352********************
           X            0.99982  -0.01885   0.00375
           Y            0.01886   0.99982  -0.00223
           Z           -0.00371   0.00230   0.99999
 This molecule is an asymmetric top.
 Rotational symmetry number  1.
 Warning -- assumption of classical behavior for rotation
           may cause significant error
 Rotational temperatures (Kelvin)      0.01634     0.00709     0.00503
 Rotational constants (GHZ):           0.34043     0.14767     0.10473
 Zero-point vibrational energy     828012.6 (Joules/Mol)
                                  197.89976 (Kcal/Mol)
 Warning -- explicit consideration of  31 degrees of freedom as
           vibrations may cause significant error
 Vibrational temperatures:     31.53    38.55    47.81    57.40    75.34
          (Kelvin)             88.77    91.55    99.84   119.70   121.75
                              131.13   161.56   194.39   219.50   229.68
                              334.36   335.40   350.58   358.24   420.02
                              435.31   438.20   467.66   535.69   612.63
                              617.00   723.14   748.63   781.04   786.06
                              840.77   912.76   949.18   997.52  1016.99
                             1051.56  1101.68  1112.18  1114.11  1181.94
                             1201.27  1229.64  1233.98  1273.53  1278.74
                             1285.99  1291.33  1310.68  1407.43  1445.62
                             1465.39  1469.24  1475.92  1482.25  1538.69
                             1595.32  1601.96  1638.53  1648.35  1655.08
                             1699.36  1714.08  1757.15  1852.79  1856.12
                             1885.78  1915.70  1925.07  1931.13  1942.65
                             1960.06  2007.11  2048.85  2049.94  2055.39
                             2069.06  2121.40  2132.24  2138.83  2149.98
                             2173.02  2173.09  2186.34  2191.88  2197.58
                             2248.02  2312.68  2344.26  2397.52  2406.73
                             2435.91  2463.95  2571.22  4342.71  4412.05
                             4421.27  4424.22  4429.51  4437.44  4475.53
                             4478.11  4500.86  4520.85  4522.16  4523.08
                             4549.90  4584.68  4644.55  4689.59  4695.81
                             4746.49

 Zero-point correction=                           0.315373 (Hartree/Particle)
 Thermal correction to Energy=                    0.337415
 Thermal correction to Enthalpy=                  0.338359
 Thermal correction to Gibbs Free Energy=         0.259729
 Sum of electronic and zero-point Energies=          -1045.987200
 Sum of electronic and thermal Energies=             -1045.965158
 Sum of electronic and thermal Enthalpies=           -1045.964214
 Sum of electronic and thermal Free Energies=        -1046.042844

                     E (Thermal)             CV                S
                      KCal/Mol        Cal/Mol-Kelvin    Cal/Mol-Kelvin
 Total                  211.731             77.481            165.492
 Electronic               0.000              0.000              0.000
 Translational            0.889              2.981             42.954
 Rotational               0.889              2.981             35.367
 Vibrational            209.954             71.519             87.171
 Vibration     1          0.593              1.985              6.452
 Vibration     2          0.593              1.984              6.054
 Vibration     3          0.594              1.983              5.627
 Vibration     4          0.594              1.981              5.264
 Vibration     5          0.596              1.977              4.726
 Vibration     6          0.597              1.973              4.402
 Vibration     7          0.597              1.972              4.341
 Vibration     8          0.598              1.969              4.170
 Vibration     9          0.600              1.961              3.814
 Vibration    10          0.601              1.960              3.781
 Vibration    11          0.602              1.955              3.635
 Vibration    12          0.607              1.939              3.229
 Vibration    13          0.613              1.918              2.872
 Vibration    14          0.619              1.900              2.640
 Vibration    15          0.621              1.892              2.554
 Vibration    16          0.653              1.791              1.860
 Vibration    17          0.654              1.790              1.855
 Vibration    18          0.659              1.773              1.776
 Vibration    19          0.662              1.764              1.738
 Vibration    20          0.687              1.689              1.463
 Vibration    21          0.694              1.669              1.403
 Vibration    22          0.695              1.665              1.392
 Vibration    23          0.709              1.625              1.285
 Vibration    24          0.744              1.529              1.070
 Vibration    25          0.788              1.414              0.872
 Vibration    26          0.790              1.407              0.862
 Vibration    27          0.858              1.244              0.652
 Vibration    28          0.875              1.205              0.609
 Vibration    29          0.898              1.155              0.559
 Vibration    30          0.902              1.148              0.552
 Vibration    31          0.941              1.065              0.477

 Optimization completed.
    -- Stationary point found.
 Normal termination of Gaussian 09 at Tue Apr  9 14:02:58 2019.
