 Gaussian 09, Revision E.01,

 ----------------------------------------------------------------------
 # M062X/Gen 6D SCF=Tight INT(grid=ultrafine) OPT IOP(2/17=4) Freq=Nora
 man maxdisk=2147483648
 ----------------------------------------------------------------------

 --------------------------
 aryl_urea_Cl_CF3.M062X.opt
 --------------------------
 Symbolic Z-matrix:
 Charge =  0 Multiplicity = 1

 SCF Done:  E(RM062X) =  -1370.49890202     A.U. after   15 cycles
 SCF Done:  E(RM062X) =  -1370.52873046     A.U. after   14 cycles
 SCF Done:  E(RM062X) =  -1370.53489692     A.U. after   15 cycles
 SCF Done:  E(RM062X) =  -1370.53606595     A.U. after   14 cycles
 SCF Done:  E(RM062X) =  -1370.53649116     A.U. after   13 cycles
 SCF Done:  E(RM062X) =  -1370.53663079     A.U. after   13 cycles
 SCF Done:  E(RM062X) =  -1370.53669820     A.U. after   13 cycles
 SCF Done:  E(RM062X) =  -1370.53672308     A.U. after   12 cycles
 SCF Done:  E(RM062X) =  -1370.53674121     A.U. after   12 cycles
 SCF Done:  E(RM062X) =  -1370.53675472     A.U. after   12 cycles
 SCF Done:  E(RM062X) =  -1370.53725211     A.U. after   10 cycles
 SCF Done:  E(RM062X) =  -1370.53725224     A.U. after   10 cycles
 SCF Done:  E(RM062X) =  -1370.53725230     A.U. after   10 cycles
 SCF Done:  E(RM062X) =  -1370.53725232     A.U. after    8 cycles
 SCF Done:  E(RM062X) =  -1370.53725231     A.U. after    8 cycles
 SCF Done:  E(RM062X) =  -1370.53725229     A.U. after    9 cycles
 SCF Done:  E(RM062X) =  -1370.53725226     A.U. after    9 cycles
 Optimization completed.
    -- Stationary point found.
 Normal termination of Gaussian 09 at Thu Jul 12 20:40:53 2018.

 ----------------------------------------------------------------------
 #N Geom=AllCheck Guess=TCheck SCRF=Check Test GenChk RM062X/ChkBas Fre
 q
 ----------------------------------------------------------------------

 Structure from the checkpoint file:  "aryl_urea_Cl_CF3.M062X.opt.chk"
 --------------------------
 aryl_urea_Cl_CF3.M062X.opt
 --------------------------
 Charge =  0 Multiplicity = 1

 SCF Done:  E(RM062X) =  -1370.53725226     A.U. after    1 cycles
 Optimization completed.
 Normal termination of Gaussian 09 at Thu Jul 12 21:26:40 2018.
 Gaussian 09:  ES64L-G09RevE.01 30-Nov-2015

 ----------------------------------------------------------------------
 # M062X/Gen 6D SCF=Tight INT(grid=ultrafine) OPT IOP(2/17=4) Freq=Nora
 man geom=check guess=read IOP(2/17=4) maxdisk=2147483648
 ----------------------------------------------------------------------

 --------------------------
 aryl_urea_Cl_CF3.M062X.opt
 --------------------------
 Structure from the checkpoint file:  "aryl_urea_Cl_CF3.M062X.opt.chk"
 Charge =  0 Multiplicity = 1

 SCF Done:  E(RM062X) =  -1370.53725226     A.U. after    1 cycles
    -- Stationary point found.
 Normal termination of Gaussian 09 at Thu Jul 12 21:27:36 2018.

 ----------------------------------------------------------------------
 #N Geom=AllCheck Guess=TCheck SCRF=Check Test GenChk RM062X/ChkBas Fre
 q
 ----------------------------------------------------------------------

 Structure from the checkpoint file:  "aryl_urea_Cl_CF3.M062X.opt.chk"
 --------------------------
 aryl_urea_Cl_CF3.M062X.opt
 --------------------------
 Charge =  0 Multiplicity = 1

                         Standard orientation:
 ---------------------------------------------------------------------
 Center     Atomic      Atomic             Coordinates (Angstroms)
 Number     Number       Type             X           Y           Z
 ---------------------------------------------------------------------
      1          6           0       -3.002597    0.453646    0.000929
      2          6           0       -2.413662    1.714005   -0.008634
      3          6           0       -1.037723    1.874733    0.009217
      4          6           0       -0.199476    0.749743    0.039005
      5          6           0       -0.766283   -0.529275    0.048653
      6          6           0       -2.154174   -0.646536    0.030525
      7          1           0       -4.080087    0.341363   -0.011130
      8          7           0        1.178559    0.988435    0.081319
      9          6           0        2.198762    0.047862   -0.022926
     10          7           0        3.454980    0.597942    0.063475
     11          8           0        2.006485   -1.141376   -0.201608
     12          6           0        4.610622   -0.290536    0.099608
     13          6           0        5.899585    0.503117   -0.069606
     14          6           0        7.125384   -0.406946   -0.036756
     15          1           0       -0.617360    2.876677    0.003338
     16          1           0       -0.135302   -1.407849    0.064691
     17          1           0        1.450200    1.961651    0.036984
     18          1           0        3.554373    1.477973    0.554697
     19          1           0        4.492839   -1.012262   -0.713051
     20          1           0        4.631005   -0.862927    1.037936
     21          1           0        5.978362    1.252486    0.730498
     22          1           0        5.858339    1.051685   -1.018021
     23          1           0        7.189776   -0.946954    0.913841
     24          1           0        8.047278    0.168100   -0.159222
     25          1           0        7.082549   -1.148915   -0.840949
     26         17           0       -3.427371    3.129340   -0.041158
     27          6           0       -2.733419   -2.037192    0.012565
     28          9           0       -2.503576   -2.652056   -1.161522
     29          9           0       -4.062822   -2.037007    0.203620
     30          9           0       -2.193095   -2.813066    0.967226
 ---------------------------------------------------------------------

 SCF Done:  E(RM062X) =  -1370.53725226     A.U. after    1 cycles

 The electronic state is 1-A.
 Alpha  occ. eigenvalues -- -102.68434 -25.30205 -25.29768 -25.29602 -19.62992
 Alpha  occ. eigenvalues --  -14.82481 -14.80375 -10.81176 -10.70373 -10.63780
 Alpha  occ. eigenvalues --  -10.63453 -10.59663 -10.59424 -10.58813 -10.58261
 Alpha  occ. eigenvalues --  -10.57527 -10.56566 -10.55199  -9.83100  -7.55506
 Alpha  occ. eigenvalues --   -7.54836  -7.54822  -1.46587  -1.37431  -1.36955
 Alpha  occ. eigenvalues --   -1.19771  -1.08234  -1.04897  -1.01348  -0.96030
 Alpha  occ. eigenvalues --   -0.90690  -0.88886  -0.85295  -0.81595  -0.79705
 Alpha  occ. eigenvalues --   -0.74058  -0.73889  -0.70272  -0.69581  -0.68797
 Alpha  occ. eigenvalues --   -0.67353  -0.67292  -0.64078  -0.60297  -0.59899
 Alpha  occ. eigenvalues --   -0.57555  -0.57049  -0.56919  -0.55429  -0.54864
 Alpha  occ. eigenvalues --   -0.53873  -0.53014  -0.52815  -0.51609  -0.51295
 Alpha  occ. eigenvalues --   -0.50775  -0.49781  -0.49479  -0.48421  -0.47111
 Alpha  occ. eigenvalues --   -0.46293  -0.44275  -0.44100  -0.43171  -0.42062
 Alpha  occ. eigenvalues --   -0.41400  -0.39182  -0.38991  -0.36447  -0.33889
 Alpha  occ. eigenvalues --   -0.32376  -0.29311
 Alpha virt. eigenvalues --   -0.01568  -0.01336  -0.00015   0.01581   0.02199
 Alpha virt. eigenvalues --    0.02823   0.03177   0.03590   0.03782   0.05024
 Alpha virt. eigenvalues --    0.05368   0.05508   0.05597   0.06556   0.06794

 Mulliken charges:
               1
     1  C   -0.774127
     2  C    0.169807
     3  C   -0.756786
     4  C   -0.247129
     5  C    0.271785
     6  C   -0.289260
     7  H    0.258732
     8  N   -0.655464
     9  C    0.671507
    10  N   -0.588417
    11  O   -0.560255
    12  C   -0.198422
    13  C   -0.313190
    14  C   -0.714586
    15  H    0.216324
    16  H    0.297921
    17  H    0.413317
    18  H    0.386116
    19  H    0.244506
    20  H    0.217569
    21  H    0.202546
    22  H    0.227600
    23  H    0.214905
    24  H    0.215353
    25  H    0.216429
    26  Cl   0.226161
    27  C    1.511613
    28  F   -0.257933
    29  F   -0.332789
    30  F   -0.273834
 Sum of Mulliken charges =  -0.00000

 Dipole moment (field-independent basis, Debye):
    X=              4.9045    Y=              4.5744    Z=              0.9329  Tot=              6.7713
 Quadrupole moment (field-independent basis, Debye-Ang):
   XX=            -98.8105   YY=           -115.3333   ZZ=           -114.7651
   XY=              5.7951   XZ=              2.8150   YZ=              0.7362

  Exact polarizability: 219.420 -12.286 167.977   1.387   0.221  99.826
 Approx polarizability: 220.112  -7.771 211.559   1.710   1.253 129.716

                      1                      2                      3
                      A                      A                      A
 Frequencies --      8.5529                17.7415                23.0306
 Red. masses --     18.0724                 2.7387                 4.9453
 Frc consts  --      0.0008                 0.0005                 0.0015
 IR Inten    --      0.0605                 5.3793                 0.3360

                      4                      5                      6
                      A                      A                      A
 Frequencies --     51.6578                59.1252                76.2858
 Red. masses --      4.5061                 3.7347                 2.9898
 Frc consts  --      0.0071                 0.0077                 0.0103
 IR Inten    --      1.5772                 4.4893                 0.8376

                      7                      8                      9
                      A                      A                      A
 Frequencies --    115.3406               119.5386               155.6824
 Red. masses --      7.4567                 7.5362                 8.1854
 Frc consts  --      0.0584                 0.0634                 0.1169
 IR Inten    --      0.6179                 0.8150                 5.3009

                     10                     11                     12
                      A                      A                      A
 Frequencies --    183.9445               192.4836               226.4265
 Red. masses --      2.7432                 5.1185                 7.0738
 Frc consts  --      0.0547                 0.1117                 0.2137
 IR Inten    --      0.6088                 0.0577                 2.0742

                     13                     14                     15
                      A                      A                      A
 Frequencies --    236.3516               240.7925               249.2834
 Red. masses --      1.6034                 1.8457                 5.3249
 Frc consts  --      0.0528                 0.0631                 0.1950
 IR Inten    --      1.3446                 2.3259                 6.3130

                     16                     17                     18
                      A                      A                      A
 Frequencies --    317.3028               331.3899               337.8931
 Red. masses --     10.1307                 6.3329                 2.6549
 Frc consts  --      0.6009                 0.4098                 0.1786
 IR Inten    --      2.7382                 2.9429                60.4056

                     19                     20                     21
                      A                      A                      A
 Frequencies --    353.7666               359.6223               444.2416
 Red. masses --      4.1334                 2.5293                 6.8634
 Frc consts  --      0.3048                 0.1927                 0.7981
 IR Inten    --     20.1048                 8.9234                 1.9356

                     22                     23                     24
                      A                      A                      A
 Frequencies --    449.2124               476.5542               493.9534
 Red. masses --      3.5295                 3.4056                 1.6398
 Frc consts  --      0.4196                 0.4557                 0.2357
 IR Inten    --     22.9823                19.9939                92.6042

                     25                     26                     27
                      A                      A                      A
 Frequencies --    513.4476               575.8317               597.5869
 Red. masses --      8.7830                 5.8248                10.0489
 Frc consts  --      1.3642                 1.1380                 2.1143
 IR Inten    --     11.7062                 1.4966                 0.1058

                     28                     29                     30
                      A                      A                      A
 Frequencies --    644.7293               652.7588               709.9354
 Red. masses --      4.4339                 5.4573                 2.8576
 Frc consts  --      1.0859                 1.3700                 0.8486
 IR Inten    --      4.4593                24.9995                13.8451

                     31                     32                     33
                      A                      A                      A
 Frequencies --    713.2850               752.7531               765.7872
 Red. masses --     11.4975                 1.8717                 1.9799
 Frc consts  --      3.4465                 0.6249                 0.6841
 IR Inten    --     32.3008                11.2539                 3.6855

                     34                     35                     36
                      A                      A                      A
 Frequencies --    798.4661               859.1702               882.6011
 Red. masses --      5.8837                10.3886                 1.5570
 Frc consts  --      2.2101                 4.5182                 0.7146
 IR Inten    --      7.2854                42.0518                43.8189

                     37                     38                     39
                      A                      A                      A
 Frequencies --    900.8096               902.1537               927.8812
 Red. masses --      1.1871                 1.4040                 1.8485
 Frc consts  --      0.5676                 0.6732                 0.9377
 IR Inten    --      2.3368                 6.1732                 0.4235

                     40                     41                     42
                      A                      A                      A
 Frequencies --    937.2173               972.1359              1013.7926
 Red. masses --      1.4011                 4.8059                 5.9313
 Frc consts  --      0.7251                 2.6759                 3.5917
 IR Inten    --     11.6296                44.8190                 6.0236

                     43                     44                     45
                      A                      A                      A
 Frequencies --   1049.5333              1083.1375              1139.7427
 Red. masses --      4.2168                 2.6248                 1.8486
 Frc consts  --      2.7367                 1.8143                 1.4148
 IR Inten    --     11.7494                15.9162                29.8287

                     46                     47                     48
                      A                      A                      A
 Frequencies --   1151.3996              1160.0503              1165.8891
 Red. masses --      2.7015                 1.6032                 2.4970
 Frc consts  --      2.1101                 1.2711                 1.9998
 IR Inten    --     14.9680                11.4664                10.3575

                     49                     50                     51
                      A                      A                      A
 Frequencies --   1180.9513              1221.1737              1237.3329
 Red. masses --      1.7814                12.8411                 1.7142
 Frc consts  --      1.4638                11.2826                 1.5463
 IR Inten    --      0.1419               270.6394               253.4284

                     52                     53                     54
                      A                      A                      A
 Frequencies --   1246.5131              1273.0532              1285.0937
 Red. masses --      7.4550                 1.9605                 1.4175
 Frc consts  --      6.8248                 1.8720                 1.3793
 IR Inten    --    271.0017                16.7998               130.2144

                     55                     56                     57
                      A                      A                      A
 Frequencies --   1304.2852              1327.2381              1343.3954
 Red. masses --      1.6688                 1.1434                 1.5111
 Frc consts  --      1.6726                 1.1867                 1.6068
 IR Inten    --     43.8918                24.9491                51.1656

                     58                     59                     60
                      A                      A                      A
 Frequencies --   1352.9958              1390.9673              1426.2320
 Red. masses --      2.5485                 4.3242                 1.5359
 Frc consts  --      2.7487                 4.9293                 1.8408
 IR Inten    --    112.8296               201.8769                 5.0671

                     61                     62                     63
                      A                      A                      A
 Frequencies --   1438.4555              1481.5764              1516.0137
 Red. masses --      1.3135                 3.2034                 1.0720
 Frc consts  --      1.6013                 4.1429                 1.4516
 IR Inten    --      2.1168               104.4438                25.7184

                     64                     65                     66
                      A                      A                      A
 Frequencies --   1519.3910              1525.3253              1527.7130
 Red. masses --      3.5141                 1.0560                 1.0722
 Frc consts  --      4.7798                 1.4476                 1.4743
 IR Inten    --    361.4467                 9.5058                 2.5520

                     67                     68                     69
                      A                      A                      A
 Frequencies --   1538.2654              1546.5453              1597.6649
 Red. masses --      1.1887                 1.6956                 2.2791
 Frc consts  --      1.6572                 2.3894                 3.4276
 IR Inten    --     25.8486               293.7376               638.8703

                     70                     71                     72
                      A                      A                      A
 Frequencies --   1679.7129              1692.8977              1826.3608
 Red. masses --      6.4905                 6.4055                 8.8323
 Frc consts  --     10.7894                10.8159                17.3578
 IR Inten    --    156.5949                37.3087               269.1444

                     73                     74                     75
                      A                      A                      A
 Frequencies --   3055.5796              3058.5939              3080.6412
 Red. masses --      1.0694                 1.0669                 1.0364
 Frc consts  --      5.8827                 5.8807                 5.7950
 IR Inten    --     22.6152                36.5074                29.4228

                     76                     77                     78
                      A                      A                      A
 Frequencies --   3107.2749              3146.5809              3153.3218
 Red. masses --      1.0963                 1.0973                 1.1009
 Frc consts  --      6.2364                 6.4011                 6.4498
 IR Inten    --     15.7855                 1.5089                46.5114

                     79                     80                     81
                      A                      A                      A
 Frequencies --   3161.5305              3223.3923              3270.1828
 Red. masses --      1.1019                 1.0921                 1.0930
 Frc consts  --      6.4890                 6.6854                 6.8864
 IR Inten    --     27.4700                 3.0195                 3.6757

                     82                     83                     84
                      A                      A                      A
 Frequencies --   3289.8432              3619.3588              3640.2024
 Red. masses --      1.0927                 1.0773                 1.0771
 Frc consts  --      6.9681                 8.3149                 8.4095
 IR Inten    --     21.5142                22.2496                30.8412

 - Thermochemistry -
 -------------------
 Temperature   298.150 Kelvin.  Pressure   1.00000 Atm.
 Atom     1 has atomic number  6 and mass  12.00000

 Molecular mass:   280.05903 amu.
 Principal axes and moments of inertia in atomic units:
                           1         2         3
     Eigenvalues --  3460.38909********************
           X            0.99998  -0.00551   0.00045
           Y            0.00551   0.99998   0.00085
           Z           -0.00045  -0.00085   1.00000
 This molecule is an asymmetric top.
 Rotational symmetry number  1.
 Warning -- assumption of classical behavior for rotation
           may cause significant error
 Rotational temperatures (Kelvin)      0.02503     0.00753     0.00593
 Rotational constants (GHZ):           0.52154     0.15686     0.12356
 Zero-point vibrational energy     596194.4 (Joules/Mol)
                                  142.49389 (Kcal/Mol)
 Warning -- explicit consideration of  27 degrees of freedom as
           vibrations may cause significant error
 Vibrational temperatures:     12.31    25.53    33.14    74.32    85.07
          (Kelvin)            109.76   165.95   171.99   223.99   264.65
                              276.94   325.78   340.06   346.45   358.66
                              456.53   476.80   486.15   508.99   517.42
                              639.16   646.32   685.65   710.69   738.74
                              828.49   859.79   927.62   939.17  1021.44
                             1026.26  1083.04  1101.80  1148.81  1236.15
                             1269.86  1296.06  1298.00  1335.01  1348.44
                             1398.69  1458.62  1510.04  1558.39  1639.83
                             1656.61  1669.05  1677.45  1699.12  1756.99
                             1780.24  1793.45  1831.64  1848.96  1876.57
                             1909.60  1932.84  1946.66  2001.29  2052.03
                             2069.61  2131.66  2181.20  2186.06  2194.60
                             2198.04  2213.22  2225.13  2298.68  2416.73
                             2435.70  2627.72  4396.29  4400.63  4432.35
                             4470.67  4527.22  4536.92  4548.73  4637.74
                             4705.06  4733.34  5207.44  5237.43

 Zero-point correction=                           0.227078 (Hartree/Particle)
 Thermal correction to Energy=                    0.245159
 Thermal correction to Enthalpy=                  0.246103
 Thermal correction to Gibbs Free Energy=         0.176055
 Sum of electronic and zero-point Energies=          -1370.310174
 Sum of electronic and thermal Energies=             -1370.292093
 Sum of electronic and thermal Enthalpies=           -1370.291149
 Sum of electronic and thermal Free Energies=        -1370.361197

                     E (Thermal)             CV                S
                      KCal/Mol        Cal/Mol-Kelvin    Cal/Mol-Kelvin
 Total                  153.840             64.517            147.428
 Electronic               0.000              0.000              0.000
 Translational            0.889              2.981             42.788
 Rotational               0.889              2.981             34.719
 Vibrational            152.062             58.556             69.922
 Vibration     1          0.593              1.987              8.322
 Vibration     2          0.593              1.986              6.872
 Vibration     3          0.593              1.985              6.354
 Vibration     4          0.596              1.977              4.753
 Vibration     5          0.596              1.974              4.486
 Vibration     6          0.599              1.965              3.984
 Vibration     7          0.608              1.937              3.177
 Vibration     8          0.609              1.933              3.108
 Vibration     9          0.620              1.896              2.602
 Vibration    10          0.631              1.862              2.288
 Vibration    11          0.634              1.850              2.204
 Vibration    12          0.650              1.801              1.907
 Vibration    13          0.655              1.785              1.830
 Vibration    14          0.658              1.778              1.797
 Vibration    15          0.662              1.764              1.736
 Vibration    16          0.704              1.641              1.324
 Vibration    17          0.714              1.613              1.253
 Vibration    18          0.718              1.600              1.222
 Vibration    19          0.730              1.568              1.149
 Vibration    20          0.734              1.555              1.124
 Vibration    21          0.804              1.374              0.813
 Vibration    22          0.808              1.363              0.798
 Vibration    23          0.833              1.302              0.719
 Vibration    24          0.850              1.263              0.673
 Vibration    25          0.869              1.220              0.625
 Vibration    26          0.932              1.084              0.493
 Vibration    27          0.956              1.037              0.454

 Optimization completed.
    -- Stationary point found.
 Normal termination of Gaussian 09 at Thu Jul 12 22:12:50 2018.
