 Gaussian 09, Revision E.01,

 ----------------------------------------------------------------------
 # M062X/Gen 6D SCF=Tight INT(grid=ultrafine) OPT IOP(2/17=4) Freq=Nora
 man SCRF=(SMD,Solvent=h2o) maxdisk=2147483648
 ----------------------------------------------------------------------

 -------------------------------------
 aryl_urea_Cl_CF3_a1.M062X.SMD.h2o.opt
 -------------------------------------
 Symbolic Z-matrix:
 Charge = -1 Multiplicity = 1

 SCF Done:  E(RM062X) =  -1370.05235009     A.U. after   15 cycles
 SCF Done:  E(RM062X) =  -1370.07495340     A.U. after   14 cycles
 SCF Done:  E(RM062X) =  -1370.07581044     A.U. after   14 cycles
 SCF Done:  E(RM062X) =  -1370.07671977     A.U. after   14 cycles
 SCF Done:  E(RM062X) =  -1370.07683389     A.U. after   12 cycles
 SCF Done:  E(RM062X) =  -1370.07683754     A.U. after   10 cycles
 SCF Done:  E(RM062X) =  -1370.07683841     A.U. after    9 cycles
 SCF Done:  E(RM062X) =  -1370.07684522     A.U. after   11 cycles
 SCF Done:  E(RM062X) =  -1370.00085276     A.U. after   15 cycles
 SCF Done:  E(RM062X) =  -1370.07684825     A.U. after    9 cycles
 SCF Done:  E(RM062X) =  -1370.07805339     A.U. after   13 cycles
 SCF Done:  E(RM062X) =  -1370.07806126     A.U. after   13 cycles
 SCF Done:  E(RM062X) =  -1370.07806299     A.U. after   11 cycles
 SCF Done:  E(RM062X) =  -1370.07806317     A.U. after   10 cycles
 SCF Done:  E(RM062X) =  -1370.07806324     A.U. after    8 cycles
 SCF Done:  E(RM062X) =  -1370.07806330     A.U. after    9 cycles
 SCF Done:  E(RM062X) =  -1370.07806331     A.U. after   10 cycles
 Optimization completed.
    -- Stationary point found.
 Normal termination of Gaussian 09 at Tue Jul 10 00:11:34 2018.

 ----------------------------------------------------------------------
 #N Geom=AllCheck Guess=TCheck SCRF=Check Test GenChk RM062X/ChkBas Fre
 q
 ----------------------------------------------------------------------

 Structure from the checkpoint file:  "aryl_urea_Cl_CF3_a1.M062X.SMD.h2o.opt.chk"
 -------------------------------------
 aryl_urea_Cl_CF3_a1.M062X.SMD.h2o.opt
 -------------------------------------
 Charge = -1 Multiplicity = 1

 SCF Done:  E(RM062X) =  -1370.07806331     A.U. after    1 cycles
 Optimization completed.
 Normal termination of Gaussian 09 at Tue Jul 10 00:53:40 2018.
 Gaussian 09:  ES64L-G09RevE.01 30-Nov-2015

 ----------------------------------------------------------------------
 # M062X/Gen 6D SCF=Tight INT(grid=ultrafine) OPT IOP(2/17=4) Freq=Nora
 man SCRF=(SMD,Solvent=h2o) geom=check guess=read IOP(2/17=4) maxdisk=2
 147483648
 ----------------------------------------------------------------------

 -------------------------------------
 aryl_urea_Cl_CF3_a1.M062X.SMD.h2o.opt
 -------------------------------------
 Structure from the checkpoint file:  "aryl_urea_Cl_CF3_a1.M062X.SMD.h2o.opt.chk"
 Charge = -1 Multiplicity = 1

 SCF Done:  E(RM062X) =  -1370.07806331     A.U. after    1 cycles
    -- Stationary point found.
 Normal termination of Gaussian 09 at Tue Jul 10 00:54:41 2018.

 ----------------------------------------------------------------------
 #N Geom=AllCheck Guess=TCheck SCRF=Check Test GenChk RM062X/ChkBas Fre
 q
 ----------------------------------------------------------------------

 Structure from the checkpoint file:  "aryl_urea_Cl_CF3_a1.M062X.SMD.h2o.opt.chk"
 -------------------------------------
 aryl_urea_Cl_CF3_a1.M062X.SMD.h2o.opt
 -------------------------------------
 Charge = -1 Multiplicity = 1

                         Standard orientation:
 ---------------------------------------------------------------------
 Center     Atomic      Atomic             Coordinates (Angstroms)
 Number     Number       Type             X           Y           Z
 ---------------------------------------------------------------------
      1          6           0        2.977300    0.463149   -0.056292
      2          6           0        2.368517    1.715843   -0.041173
      3          6           0        0.999736    1.882207    0.063957
      4          6           0        0.130392    0.765700    0.158839
      5          6           0        0.741785   -0.510940    0.153152
      6          6           0        2.124480   -0.632473    0.048625
      7          1           0        4.052050    0.354413   -0.140757
      8          7           0       -1.208187    1.031380    0.320909
      9          6           0       -2.127432    0.104471    0.004388
     10          7           0       -3.408642    0.409388    0.442368
     11          8           0       -1.960559   -0.973780   -0.636514
     12          6           0       -4.560736   -0.208709   -0.201435
     13          6           0       -5.857330    0.344613    0.371986
     14          6           0       -7.076715   -0.280538   -0.298780
     15          1           0        0.571077    2.879773    0.076119
     16          1           0        0.132834   -1.401928    0.244298
     17          1           0       -3.530787    1.386475    0.686736
     18          1           0       -4.520289   -1.290633   -0.040152
     19          1           0       -4.539251   -0.044084   -1.289729
     20          1           0       -5.876642    1.433997    0.237085
     21          1           0       -5.884413    0.154856    1.452009
     22          1           0       -7.078196   -0.079151   -1.375900
     23          1           0       -8.006022    0.118571    0.119030
     24          1           0       -7.084951   -1.367570   -0.160253
     25         17           0        3.385746    3.140987   -0.160118
     26          6           0        2.694023   -2.020571    0.045270
     27          9           0        2.323194   -2.726858    1.135263
     28          9           0        4.037970   -2.040944    0.014087
     29          9           0        2.274955   -2.740326   -1.019186
 ---------------------------------------------------------------------

 SCF Done:  E(RM062X) =  -1370.07806331     A.U. after    1 cycles

 The electronic state is 1-A.
 Alpha  occ. eigenvalues -- -102.67328 -25.30602 -25.30209 -25.30155 -19.59537
 Alpha  occ. eigenvalues --  -14.75620 -14.71297 -10.81248 -10.64898 -10.61807
 Alpha  occ. eigenvalues --  -10.59202 -10.58107 -10.56359 -10.56252 -10.55416
 Alpha  occ. eigenvalues --  -10.55203 -10.53596 -10.52692  -9.81995  -7.54385
 Alpha  occ. eigenvalues --   -7.53747  -7.53731  -1.46868  -1.37730  -1.37268
 Alpha  occ. eigenvalues --   -1.13900  -1.01172  -1.00396  -0.97570  -0.93939
 Alpha  occ. eigenvalues --   -0.87620  -0.86169  -0.82477  -0.80483  -0.76172
 Alpha  occ. eigenvalues --   -0.72353  -0.70598  -0.69160  -0.68436  -0.66799
 Alpha  occ. eigenvalues --   -0.64307  -0.61686  -0.58283  -0.57824  -0.57440
 Alpha  occ. eigenvalues --   -0.56273  -0.55124  -0.53777  -0.53259  -0.52963
 Alpha  occ. eigenvalues --   -0.52003  -0.51326  -0.50688  -0.49679  -0.48384
 Alpha  occ. eigenvalues --   -0.47908  -0.47157  -0.45592  -0.44609  -0.44039
 Alpha  occ. eigenvalues --   -0.42152  -0.41412  -0.40634  -0.39068  -0.38641
 Alpha  occ. eigenvalues --   -0.38107  -0.36305  -0.34455  -0.30996  -0.30339
 Alpha  occ. eigenvalues --   -0.30080  -0.24136
 Alpha virt. eigenvalues --    0.00304   0.01576   0.01743   0.03052   0.03194
 Alpha virt. eigenvalues --    0.04162   0.04266   0.04378   0.05206   0.05516
 Alpha virt. eigenvalues --    0.05812   0.06236   0.06806   0.07169   0.07879

 Mulliken charges:
               1
     1  C   -0.856760
     2  C    0.515502
     3  C   -0.824273
     4  C    0.165845
     5  C   -0.328666
     6  C   -0.239028
     7  H    0.277803
     8  N   -0.634663
     9  C    0.678944
    10  N   -0.611395
    11  O   -0.842200
    12  C   -0.345323
    13  C   -0.361967
    14  C   -0.744747
    15  H    0.255514
    16  H    0.264520
    17  H    0.432808
    18  H    0.223097
    19  H    0.208969
    20  H    0.222751
    21  H    0.227791
    22  H    0.219938
    23  H    0.220200
    24  H    0.219247
    25  Cl   0.150581
    26  C    1.440846
    27  F   -0.294855
    28  F   -0.350250
    29  F   -0.290229
 Sum of Mulliken charges =  -1.00000

 Dipole moment (field-independent basis, Debye):
    X=             -0.3638    Y=              2.0367    Z=              0.8864  Tot=              2.2509
 Quadrupole moment (field-independent basis, Debye-Ang):
   XX=           -121.7403   YY=           -130.5140   ZZ=           -121.0472
   XY=             -5.7546   XZ=             -1.8147   YZ=             -3.2720

  Exact polarizability: 321.510  20.555 248.009  -7.799   6.429 162.569
 Approx polarizability: 248.697  12.569 212.157  -7.588   4.988 143.192

                      1                      2                      3
                      A                      A                      A
 Frequencies --     25.2774                28.3842                40.7158
 Red. masses --     17.7406                 5.5103                 2.7591
 Frc consts  --      0.0067                 0.0026                 0.0027
 IR Inten    --      0.1551                 6.4869                 4.0189

                      4                      5                      6
                      A                      A                      A
 Frequencies --     52.6041                79.1803                86.9685
 Red. masses --      5.3342                 2.5008                 5.1933
 Frc consts  --      0.0087                 0.0092                 0.0231
 IR Inten    --      4.4910                10.5563                 0.1352

                      7                      8                      9
                      A                      A                      A
 Frequencies --    112.4292               135.4103               160.0643
 Red. masses --      7.6749                 6.9890                 4.7431
 Frc consts  --      0.0572                 0.0755                 0.0716
 IR Inten    --      3.4270                 3.7914                 9.7107

                     10                     11                     12
                      A                      A                      A
 Frequencies --    173.7493               195.8074               226.1000
 Red. masses --      3.7178                 5.4661                 7.6822
 Frc consts  --      0.0661                 0.1235                 0.2314
 IR Inten    --      6.6552                 1.0622                 6.4143

                     13                     14                     15
                      A                      A                      A
 Frequencies --    241.8663               253.8353               275.7466
 Red. masses --      1.1442                 4.7165                 5.9487
 Frc consts  --      0.0394                 0.1791                 0.2665
 IR Inten    --      0.2255                 6.2933                 5.3818

                     16                     17                     18
                      A                      A                      A
 Frequencies --    327.2880               337.2280               352.6564
 Red. masses --      9.9428                 8.1526                 6.5399
 Frc consts  --      0.6275                 0.5463                 0.4792
 IR Inten    --      2.7697                 1.2360                12.3669

                     19                     20                     21
                      A                      A                      A
 Frequencies --    359.1367               440.8453               449.1418
 Red. masses --      6.0959                 4.6823                 5.5785
 Frc consts  --      0.4632                 0.5361                 0.6630
 IR Inten    --     23.4076                48.6733                 6.5719

                     22                     23                     24
                      A                      A                      A
 Frequencies --    482.4538               511.9988               541.6497
 Red. masses --      5.8115                10.5634                 1.5352
 Frc consts  --      0.7970                 1.6315                 0.2654
 IR Inten    --     10.6586                 1.9937               243.5053

                     25                     26                     27
                      A                      A                      A
 Frequencies --    585.8706               597.9449               646.3952
 Red. masses --      5.5929                 9.4425                 5.3278
 Frc consts  --      1.1311                 1.9891                 1.3116
 IR Inten    --      0.4474                 2.2546                47.5664

                     28                     29                     30
                      A                      A                      A
 Frequencies --    664.4319               703.2420               705.3997
 Red. masses --      4.4739                 2.3898                10.8728
 Frc consts  --      1.1637                 0.6963                 3.1876
 IR Inten    --     39.8973                41.4005                70.7434

                     31                     32                     33
                      A                      A                      A
 Frequencies --    758.9150               777.2576               802.9779
 Red. masses --      1.1608                 5.3069                 6.2374
 Frc consts  --      0.3939                 1.8889                 2.3695
 IR Inten    --     21.3867               119.8909                33.4919

                     34                     35                     36
                      A                      A                      A
 Frequencies --    841.2537               851.3376               893.2744
 Red. masses --     11.0210                 1.5119                 1.7534
 Frc consts  --      4.5954                 0.6456                 0.8243
 IR Inten    --     89.9920                65.2100                69.2188

                     37                     38                     39
                      A                      A                      A
 Frequencies --    905.7995               907.4764               928.4778
 Red. masses --      1.1683                 1.3643                 1.8825
 Frc consts  --      0.5648                 0.6620                 0.9561
 IR Inten    --     18.8382                 3.2691                 7.4083

                     40                     41                     42
                      A                      A                      A
 Frequencies --    960.7632              1000.1942              1036.9629
 Red. masses --      4.8191                 5.5508                 4.8499
 Frc consts  --      2.6209                 3.2717                 3.0726
 IR Inten    --    110.1084               103.4570                12.7706

                     43                     44                     45
                      A                      A                      A
 Frequencies --   1082.5485              1132.4206              1140.8418
 Red. masses --      2.5177                 2.1426                 2.2880
 Frc consts  --      1.7384                 1.6188                 1.7545
 IR Inten    --      8.8494                54.8249                68.8755

                     46                     47                     48
                      A                      A                      A
 Frequencies --   1143.5360              1150.0328              1167.1088
 Red. masses --      1.5833                12.4839                 1.8355
 Frc consts  --      1.2199                 9.7279                 1.4731
 IR Inten    --      6.9375               446.7080                 8.2356

                     49                     50                     51
                      A                      A                      A
 Frequencies --   1185.5043              1193.4405              1256.8675
 Red. masses --      2.8953                 6.4281                 1.7634
 Frc consts  --      2.3975                 5.3943                 1.6413
 IR Inten    --    146.2713               406.0285               225.8067

                     52                     53                     54
                      A                      A                      A
 Frequencies --   1279.0063              1286.9547              1318.2285
 Red. masses --      1.4099                 1.5404                 1.6528
 Frc consts  --      1.3589                 1.5032                 1.6922
 IR Inten    --    275.0718                55.6433               192.9615

                     55                     56                     57
                      A                      A                      A
 Frequencies --   1326.1084              1339.5860              1355.7267
 Red. masses --      1.1932                 3.2152                 2.1557
 Frc consts  --      1.2363                 3.3994                 2.3344
 IR Inten    --    138.2754               174.2273               310.3323

                     58                     59                     60
                      A                      A                      A
 Frequencies --   1401.6954              1421.1802              1439.1901
 Red. masses --      3.3819                 1.3419                 2.2458
 Frc consts  --      3.9149                 1.5968                 2.7407
 IR Inten    --    831.6409               107.1895               627.5139

                     61                     62                     63
                      A                      A                      A
 Frequencies --   1476.5800              1485.1410              1492.3677
 Red. masses --      4.1320                 2.0313                 1.1508
 Frc consts  --      5.3079                 2.6398                 1.5101
 IR Inten    --     65.1625              1306.5052               185.9150

                     64                     65                     66
                      A                      A                      A
 Frequencies --   1503.7738              1509.5169              1514.7166
 Red. masses --      1.0404                 2.8388                 1.2453
 Frc consts  --      1.3862                 3.8111                 1.6835
 IR Inten    --     13.2449               313.8144                67.7250

                     67                     68                     69
                      A                      A                      A
 Frequencies --   1533.1213              1562.7449              1645.7147
 Red. masses --      1.1219                 4.4662                 6.3092
 Frc consts  --      1.5536                 6.4264                10.0678
 IR Inten    --     75.7314              1296.5270                22.9388

                     70                     71                     72
                      A                      A                      A
 Frequencies --   1668.6624              3036.1815              3067.5328
 Red. masses --      7.3432                 1.0707                 1.0611
 Frc consts  --     12.0468                 5.8151                 5.8826
 IR Inten    --    163.7902               100.9543                55.0599

                     73                     74                     75
                      A                      A                      A
 Frequencies --   3074.3621              3103.1022              3123.7290
 Red. masses --      1.0365                 1.0983                 1.0966
 Frc consts  --      5.7720                 6.2312                 6.3043
 IR Inten    --     43.7020                17.8114                62.4890

                     76                     77                     78
                      A                      A                      A
 Frequencies --   3142.8080              3153.0629              3239.2755
 Red. masses --      1.1036                 1.1020                 1.0923
 Frc consts  --      6.4222                 6.4551                 6.7527
 IR Inten    --    101.8252                53.0773                 1.4551

                     79                     80                     81
                      A                      A                      A
 Frequencies --   3270.4809              3276.4976              3603.0170
 Red. masses --      1.0933                 1.0908                 1.0769
 Frc consts  --      6.8899                 6.8992                 8.2368
 IR Inten    --      8.8804                 1.2310                59.2752

 - Thermochemistry -
 -------------------
 Temperature   298.150 Kelvin.  Pressure   1.00000 Atm.
 Atom     1 has atomic number  6 and mass  12.00000

 Molecular mass:   279.05120 amu.
 Principal axes and moments of inertia in atomic units:
                           1         2         3
     Eigenvalues --  3470.50116********************
           X            0.99998   0.00600   0.00109
           Y           -0.00601   0.99998   0.00311
           Z           -0.00107  -0.00312   0.99999
 This molecule is an asymmetric top.
 Rotational symmetry number  1.
 Warning -- assumption of classical behavior for rotation
           may cause significant error
 Rotational temperatures (Kelvin)      0.02496     0.00765     0.00605
 Rotational constants (GHZ):           0.52002     0.15949     0.12608
 Zero-point vibrational energy     559618.3 (Joules/Mol)
                                  133.75199 (Kcal/Mol)
 Warning -- explicit consideration of  26 degrees of freedom as
           vibrations may cause significant error
 Vibrational temperatures:     36.37    40.84    58.58    75.69   113.92
          (Kelvin)            125.13   161.76   194.82   230.30   249.99
                              281.72   325.31   347.99   365.21   396.74
                              470.89   485.20   507.39   516.72   634.28
                              646.21   694.14   736.65   779.31   842.94
                              860.31   930.02   955.97  1011.81  1014.91
                             1091.91  1118.30  1155.30  1210.37  1224.88
                             1285.22  1303.24  1305.65  1335.87  1382.32
                             1439.05  1491.96  1557.54  1629.30  1641.41
                             1645.29  1654.64  1679.21  1705.67  1717.09
                             1808.35  1840.20  1851.64  1896.63  1907.97
                             1927.36  1950.59  2016.72  2044.76  2070.67
                             2124.47  2136.78  2147.18  2163.59  2171.86
                             2179.34  2205.82  2248.44  2367.81  2400.83
                             4368.38  4413.49  4423.32  4464.67  4494.34
                             4521.79  4536.55  4660.59  4705.49  4714.14
                             5183.93

 Zero-point correction=                           0.213147 (Hartree/Particle)
 Thermal correction to Energy=                    0.230579
 Thermal correction to Enthalpy=                  0.231523
 Thermal correction to Gibbs Free Energy=         0.164782
 Sum of electronic and zero-point Energies=          -1369.864916
 Sum of electronic and thermal Energies=             -1369.847484
 Sum of electronic and thermal Enthalpies=           -1369.846540
 Sum of electronic and thermal Free Energies=        -1369.913281

                     E (Thermal)             CV                S
                      KCal/Mol        Cal/Mol-Kelvin    Cal/Mol-Kelvin
 Total                  144.691             62.876            140.468
 Electronic               0.000              0.000              0.000
 Translational            0.889              2.981             42.777
 Rotational               0.889              2.981             34.685
 Vibrational            142.913             56.915             63.006
 Vibration     1          0.593              1.985              6.169
 Vibration     2          0.593              1.984              5.939
 Vibration     3          0.594              1.981              5.224
 Vibration     4          0.596              1.977              4.717
 Vibration     5          0.600              1.963              3.911
 Vibration     6          0.601              1.958              3.727
 Vibration     7          0.607              1.939              3.227
 Vibration     8          0.613              1.918              2.868
 Vibration     9          0.622              1.891              2.549
 Vibration    10          0.627              1.875              2.395
 Vibration    11          0.636              1.846              2.172
 Vibration    12          0.650              1.801              1.910
 Vibration    13          0.658              1.776              1.789
 Vibration    14          0.665              1.756              1.704
 Vibration    15          0.677              1.718              1.560
 Vibration    16          0.711              1.621              1.273
 Vibration    17          0.718              1.601              1.225
 Vibration    18          0.729              1.570              1.154
 Vibration    19          0.734              1.556              1.126
 Vibration    20          0.801              1.381              0.824
 Vibration    21          0.808              1.363              0.798
 Vibration    22          0.839              1.289              0.703
 Vibration    23          0.867              1.223              0.629
 Vibration    24          0.897              1.158              0.562
 Vibration    25          0.943              1.062              0.475
 Vibration    26          0.956              1.036              0.453

 Optimization completed.
    -- Stationary point found.
 Normal termination of Gaussian 09 at Tue Jul 10 01:40:45 2018.
