 Gaussian 09, Revision E.01,

 ----------------------------------------------------------------------
 # M062X/Gen 6D SCF=Tight INT(grid=ultrafine) OPT=CalcFC IOP(2/17=4) ma
 xdisk=2684354560
 ----------------------------------------------------------------------

 ---------------------------------
 3TFM4Chloro_EtO.M062X_6-31pGd_opt
 ---------------------------------
 Symbolic Z-matrix:
 Charge = -1 Multiplicity = 1

 SCF Done:  E(RM062X) =  -1638.33998259     A.U. after   16 cycles
 SCF Done:  E(RM062X) =  -1638.34010099     A.U. after   12 cycles
 SCF Done:  E(RM062X) =  -1638.34010345     A.U. after   12 cycles
 SCF Done:  E(RM062X) =  -1638.34011009     A.U. after   12 cycles
 SCF Done:  E(RM062X) =  -1638.33979599     A.U. after   13 cycles
 SCF Done:  E(RM062X) =  -1638.34011026     A.U. after    8 cycles
 SCF Done:  E(RM062X) =  -1638.34004593     A.U. after   13 cycles
 SCF Done:  E(RM062X) =  -1638.34011188     A.U. after    9 cycles
 SCF Done:  E(RM062X) =  -1638.34009770     A.U. after   13 cycles
 SCF Done:  E(RM062X) =  -1638.34011327     A.U. after   13 cycles
 SCF Done:  E(RM062X) =  -1638.34011406     A.U. after   11 cycles
 SCF Done:  E(RM062X) =  -1638.34011410     A.U. after    9 cycles
 SCF Done:  E(RM062X) =  -1638.34011412     A.U. after   10 cycles
 SCF Done:  E(RM062X) =  -1638.34011413     A.U. after    8 cycles
 Optimization completed on the basis of negligible forces.
    -- Stationary point found.
 Normal termination of Gaussian 09 at Wed Feb 27 16:23:51 2019.
 Gaussian 09:  ES64L-G09RevE.01 30-Nov-2015

 ----------------------------------------------------------------------
 # M062X/Gen 6D SCF=Tight INT(grid=ultrafine) Freq=Noraman maxdisk=2684
 354560 geom=check guess=read IOP(2/17=4)
 ----------------------------------------------------------------------

 ---------------------------------
 3TFM4Chloro_EtO.M062X_6-31pGd_opt
 ---------------------------------
 Structure from the checkpoint file:  "3TFM4Chloro_EtO.M062X_6-31pGd_opt.chk"
 Charge = -1 Multiplicity = 1

                         Standard orientation:
 ---------------------------------------------------------------------
 Center     Atomic      Atomic             Coordinates (Angstroms)
 Number     Number       Type             X           Y           Z
 ---------------------------------------------------------------------
      1          6           0       -5.690157   -3.667991    0.084922
      2          6           0       -4.854370   -2.403059    0.266486
      3          6           0       -3.398358   -2.627385   -0.128510
      4          7           0       -2.656577   -1.395133    0.006176
      5          6           0       -1.301852   -1.403125   -0.015403
      6          8           0       -0.626568   -2.434658   -0.064806
      7          7           0       -0.759673   -0.126350    0.035708
      8          6           0        0.576322    0.215230    0.036219
      9          6           0        1.640481   -0.703781   -0.005130
     10          6           0        0.879708    1.590721    0.083099
     11          6           0        2.194250    2.028215    0.089357
     12          6           0        3.242991    1.114208    0.049056
     13          6           0        2.959854   -0.251485    0.000836
     14          1           0       -6.731971   -3.504692    0.379841
     15          1           0       -5.294749   -4.492574    0.690253
     16          1           0       -5.686192   -3.994668   -0.961680
     17          1           0       -4.888668   -2.069362    1.310671
     18          1           0       -5.267074   -1.580639   -0.329949
     19          1           0       -3.346430   -3.006519   -1.162444
     20          1           0       -2.937020   -3.392506    0.507373
     21          1           0       -3.177831   -0.501799   -0.061553
     22          1           0        1.422762   -1.762152   -0.042193
     23          1           0        0.057779    2.302607    0.112882
     24          1           0        2.416788    3.090065    0.125812
     25         17           0        4.884118    1.725483    0.060831
     26          6           0        4.071720   -1.264814   -0.045849
     27          9           0        3.615060   -2.526414   -0.097114
     28          9           0        4.876447   -1.195175    1.035527
     29          9           0        4.867964   -1.104045   -1.123609
     30          1           0       -1.419214    0.679259    0.066190
     31          8           0       -4.179811    0.970025   -0.190300
     32          8           0       -2.307026    2.178532    0.085521
     33          6           0       -3.551868    2.052516   -0.072833
     34          6           0       -4.396156    3.336471   -0.128949
     35          6           0       -3.595636    4.625461    0.009884
     36          1           0       -5.154443    3.256102    0.659831
     37          1           0       -4.949396    3.315328   -1.076039
     38          1           0       -3.052831    4.641979    0.959401
     39          1           0       -4.248649    5.505775   -0.035889
     40          1           0       -2.848681    4.703402   -0.785494
 ---------------------------------------------------------------------

 SCF Done:  E(RM062X) =  -1638.34011413     A.U. after    2 cycles

 The electronic state is 1-A.
 Alpha  occ. eigenvalues -- -102.58594 -25.20971 -25.20629 -25.20628 -19.49077
 Alpha  occ. eigenvalues --  -19.47333 -19.46796 -14.66720 -14.64872 -10.72046
 Alpha  occ. eigenvalues --  -10.56040 -10.52572 -10.51976 -10.50694 -10.49347
 Alpha  occ. eigenvalues --  -10.47563 -10.47134 -10.46269 -10.46111 -10.45450
 Alpha  occ. eigenvalues --  -10.44679 -10.43168 -10.43118  -9.73239  -7.45641
 Alpha  occ. eigenvalues --   -7.44982  -7.44976  -1.37416  -1.28151  -1.27823
 Alpha  occ. eigenvalues --   -1.05215  -1.03397  -0.94080  -0.93583  -0.91254
 Alpha  occ. eigenvalues --   -0.89963  -0.83982  -0.79570  -0.78284  -0.75210
 Alpha  occ. eigenvalues --   -0.73562  -0.71075  -0.67514  -0.63601  -0.61730
 Alpha  occ. eigenvalues --   -0.61540  -0.59702  -0.59438  -0.58202  -0.56616
 Alpha  occ. eigenvalues --   -0.54066  -0.51215  -0.48403  -0.47982  -0.47860
 Alpha  occ. eigenvalues --   -0.47179  -0.45868  -0.44984  -0.44429  -0.43791
 Alpha  occ. eigenvalues --   -0.43024  -0.42450  -0.41753  -0.41729  -0.40974
 Alpha  occ. eigenvalues --   -0.40894  -0.40570  -0.39457  -0.38335  -0.37974
 Alpha  occ. eigenvalues --   -0.37957  -0.36380  -0.35679  -0.35049  -0.34283
 Alpha  occ. eigenvalues --   -0.33901  -0.32900  -0.32671  -0.31980  -0.31186
 Alpha  occ. eigenvalues --   -0.30474  -0.29706  -0.29024  -0.28932  -0.26002
 Alpha  occ. eigenvalues --   -0.22869  -0.22718  -0.20181  -0.19652  -0.19524
 Alpha  occ. eigenvalues --   -0.18999  -0.15452
 Alpha virt. eigenvalues --    0.09696   0.09706   0.10190   0.10867   0.11014
 Alpha virt. eigenvalues --    0.11684   0.12058   0.12430   0.13062   0.13170
 Alpha virt. eigenvalues --    0.13748   0.14267   0.14458   0.14864   0.14997

 Mulliken charges:
               1
     1  C   -0.764946
     2  C   -0.334743
     3  C   -0.136151
     4  N   -0.692144
     5  C    0.671010
     6  O   -0.612735
     7  N   -0.700358
     8  C   -0.359805
     9  C   -0.480830
    10  C    0.183594
    11  C   -0.089494
    12  C    0.479850
    13  C   -1.424802
    14  H    0.197048
    15  H    0.199047
    16  H    0.201547
    17  H    0.218831
    18  H    0.250812
    19  H    0.196832
    20  H    0.219822
    21  H    0.516430
    22  H    0.303853
    23  H    0.282221
    24  H    0.214619
    25  Cl   0.198382
    26  C    1.458058
    27  F   -0.341121
    28  F   -0.274052
    29  F   -0.274444
    30  H    0.514714
    31  O   -0.631256
    32  O   -0.676046
    33  C    0.717493
    34  C   -0.548235
    35  C   -0.706961
    36  H    0.209632
    37  H    0.209775
    38  H    0.216086
    39  H    0.173035
    40  H    0.215434
 Sum of Mulliken charges =  -1.00000

 Dipole moment (field-independent basis, Debye):
    X=              1.9685    Y=              0.3343    Z=              0.1842  Tot=              2.0051
 Quadrupole moment (field-independent basis, Debye-Ang):
   XX=           -210.9841   YY=           -169.1361   ZZ=           -148.4250
   XY=             11.2801   XZ=             -0.8321   YZ=             -0.6043

  Exact polarizability: 296.293  25.026 230.078   1.743   3.329 134.680
 Approx polarizability: 301.186  19.299 261.778   2.106   4.428 176.635

                      1                      2                      3
                      A                      A                      A
 Frequencies --     13.3441                18.1352                18.8711
 Red. masses --      2.4618                 6.2025                 4.9799
 Frc consts  --      0.0003                 0.0012                 0.0010
 IR Inten    --      0.0184                 0.0192                 0.7630

                      4                      5                      6
                      A                      A                      A
 Frequencies --     31.1224                44.9122                47.3145
 Red. masses --      2.1410                 4.4501                 5.5793
 Frc consts  --      0.0012                 0.0053                 0.0074
 IR Inten    --      0.2008                 1.5673                 0.0363

                      7                      8                      9
                      A                      A                      A
 Frequencies --     51.2766                58.8977                59.9349
 Red. masses --      5.2571                 3.6634                 6.6909
 Frc consts  --      0.0081                 0.0075                 0.0142
 IR Inten    --      1.4511                 2.1428                 0.9058

                     10                     11                     12
                      A                      A                      A
 Frequencies --     68.7204                82.4930               104.2272
 Red. masses --      6.6089                 5.3801                 7.4707
 Frc consts  --      0.0184                 0.0216                 0.0478
 IR Inten    --      0.0477                 6.2071                 7.0366

                     13                     14                     15
                      A                      A                      A
 Frequencies --    116.1463               124.4771               147.0217
 Red. masses --      7.1033                 5.3488                 5.6433
 Frc consts  --      0.0565                 0.0488                 0.0719
 IR Inten    --      7.3537                 1.3644                 2.0100

                     16                     17                     18
                      A                      A                      A
 Frequencies --    167.8928               170.1535               198.9264
 Red. masses --     15.6111                 4.8087                 3.9230
 Frc consts  --      0.2593                 0.0820                 0.0915
 IR Inten    --      6.3726                 9.1738                15.0901

                     19                     20                     21
                      A                      A                      A
 Frequencies --    220.3415               230.8624               236.2487
 Red. masses --      1.1182                 6.2776                 1.1766
 Frc consts  --      0.0320                 0.1971                 0.0387
 IR Inten    --      0.4955                 0.5640                 0.5895

                     22                     23                     24
                      A                      A                      A
 Frequencies --    260.1151               302.1331               308.9059
 Red. masses --      5.3267                 4.9755                 9.7431
 Frc consts  --      0.2123                 0.2676                 0.5478
 IR Inten    --      5.5777                 8.4584                12.6491

                     25                     26                     27
                      A                      A                      A
 Frequencies --    316.7875               344.8727               352.5490
 Red. masses --      7.3627                 4.7669                 6.5634
 Frc consts  --      0.4353                 0.3340                 0.4806
 IR Inten    --      0.1868                13.3458                 0.2055

                     28                     29                     30
                      A                      A                      A
 Frequencies --    378.2838               421.6151               455.3376
 Red. masses --      8.8533                 5.6126                 6.9262
 Frc consts  --      0.7464                 0.5878                 0.8461
 IR Inten    --      2.1989                19.6873                 2.7807

                     31                     32                     33
                      A                      A                      A
 Frequencies --    466.1756               519.5706               528.6828
 Red. masses --      3.9342                 5.7394                 6.3483
 Frc consts  --      0.5037                 0.9129                 1.0454
 IR Inten    --      1.9019                17.3977                25.8786

                     34                     35                     36
                      A                      A                      A
 Frequencies --    542.0111               583.6634               596.7357
 Red. masses --      7.8396                 1.9672                 9.0003
 Frc consts  --      1.3569                 0.3948                 1.8883
 IR Inten    --      6.5387                 0.5199                 7.0172

                     37                     38                     39
                      A                      A                      A
 Frequencies --    657.5457               660.8528               670.0691
 Red. masses --      4.6367                 4.8191                 8.6991
 Frc consts  --      1.1812                 1.2400                 2.3013
 IR Inten    --     42.2511                 1.6307                27.4052

                     40                     41                     42
                      A                      A                      A
 Frequencies --    700.9606               738.4719               752.6599
 Red. masses --      7.2138                 5.0505                 1.1237
 Frc consts  --      2.0883                 1.6227                 0.3751
 IR Inten    --     14.7890                 0.0885                 3.2428

                     43                     44                     45
                      A                      A                      A
 Frequencies --    766.7637               774.4379               783.1404
 Red. masses --      3.7437                 7.8896                 6.7715
 Frc consts  --      1.2968                 2.7879                 2.4469
 IR Inten    --     29.9787                 9.8380                 3.6855

                     46                     47                     48
                      A                      A                      A
 Frequencies --    817.7368               823.0978               863.8082
 Red. masses --      1.4056                 1.3381                 1.3765
 Frc consts  --      0.5538                 0.5341                 0.6051
 IR Inten    --      3.8565                24.4422                10.5083

                     49                     50                     51
                      A                      A                      A
 Frequencies --    888.1907               898.6149               922.0711
 Red. masses --      3.9407                 1.1751                 1.7955
 Frc consts  --      1.8316                 0.5591                 0.8994
 IR Inten    --     42.4051                 4.5320                 6.2163

                     52                     53                     54
                      A                      A                      A
 Frequencies --    945.8158               954.3882               958.3435
 Red. masses --      1.4077                 2.1289                 1.5163
 Frc consts  --      0.7419                 1.1425                 0.8205
 IR Inten    --     44.1232                33.3656                52.7108

                     55                     56                     57
                      A                      A                      A
 Frequencies --   1009.5723              1022.1286              1042.1123
 Red. masses --      1.2882                 1.6675                 5.7978
 Frc consts  --      0.7736                 1.0264                 3.7097
 IR Inten    --      5.4979                 2.7499                19.3719

                     58                     59                     60
                      A                      A                      A
 Frequencies --   1049.3383              1082.5901              1107.3217
 Red. masses --      3.9411                 2.6897                 1.7783
 Frc consts  --      2.5568                 1.8573                 1.2847
 IR Inten    --     19.4995                 7.5664                 0.7541

                     61                     62                     63
                      A                      A                      A
 Frequencies --   1112.4439              1149.5144              1154.2933
 Red. masses --      2.3797                 2.1831                 2.4269
 Frc consts  --      1.7351                 1.6996                 1.9052
 IR Inten    --      5.4010                58.0190                18.7684

                     64                     65                     66
                      A                      A                      A
 Frequencies --   1178.9209              1187.8250              1195.7629
 Red. masses --      1.7703                 1.6933                 3.4673
 Frc consts  --      1.4497                 1.4076                 2.9210
 IR Inten    --     11.2524                23.9689                 4.8582

                     67                     68                     69
                      A                      A                      A
 Frequencies --   1198.2374              1233.0913              1273.1310
 Red. masses --     12.7795                 3.6885                 1.2095
 Frc consts  --     10.8106                 3.3044                 1.1550
 IR Inten    --    261.3497               249.3461                15.8980

                     70                     71                     72
                      A                      A                      A
 Frequencies --   1285.6478              1285.9292              1305.2145
 Red. masses --      2.0493                 1.1914                 1.9044
 Frc consts  --      1.9957                 1.1608                 1.9115
 IR Inten    --      5.1098                 0.2871               289.0906

                     73                     74                     75
                      A                      A                      A
 Frequencies --   1321.5577              1322.6086              1331.0266
 Red. masses --      1.4984                 2.4674                 1.5787
 Frc consts  --      1.5419                 2.5430                 1.6479
 IR Inten    --     11.1657               208.6210               128.8721

                     76                     77                     78
                      A                      A                      A
 Frequencies --   1334.5551              1374.9816              1405.9486
 Red. masses --      1.6328                 1.9919                 4.1808
 Frc consts  --      1.7134                 2.2188                 4.8691
 IR Inten    --     39.4145               345.0368               142.4655

                     79                     80                     81
                      A                      A                      A
 Frequencies --   1420.6726              1424.0852              1435.0589
 Red. masses --      1.3216                 1.3214                 1.6295
 Frc consts  --      1.5716                 1.5789                 1.9772
 IR Inten    --     19.4610                 6.7652                 0.5774

                     82                     83                     84
                      A                      A                      A
 Frequencies --   1471.5720              1483.2762              1490.6456
 Red. masses --      3.7949                 5.4285                 1.2337
 Frc consts  --      4.8419                 7.0368                 1.6152
 IR Inten    --    378.3867               186.0898                23.4362

                     85                     86                     87
                      A                      A                      A
 Frequencies --   1511.1796              1514.4993              1523.0236
 Red. masses --      1.0398                 1.0643                 1.0416
 Frc consts  --      1.3990                 1.4384                 1.4235
 IR Inten    --      4.9430                 5.9541                 6.1765

                     88                     89                     90
                      A                      A                      A
 Frequencies --   1523.4103              1528.2476              1541.0620
 Red. masses --      1.0996                 1.0725                 1.1109
 Frc consts  --      1.5036                 1.4758                 1.5544
 IR Inten    --     58.0514                 2.0295                39.7545

                     91                     92                     93
                      A                      A                      A
 Frequencies --   1546.2643              1622.9315              1643.9535
 Red. masses --      2.8327                 3.1276                 2.5385
 Frc consts  --      3.9904                 4.8537                 4.0422
 IR Inten    --    360.7276                73.3829                73.2045

                     94                     95                     96
                      A                      A                      A
 Frequencies --   1679.1783              1689.3222              1718.4039
 Red. masses --      5.2701                 2.7631                 3.5458
 Frc consts  --      8.7551                 4.6460                 6.1690
 IR Inten    --    229.6169               340.0401               898.6996

                     97                     98                     99
                      A                      A                      A
 Frequencies --   1789.4800              3014.3696              3063.9183
 Red. masses --      3.1215                 1.0718                 1.0363
 Frc consts  --      5.8894                 5.7382                 5.7317
 IR Inten    --    369.8539                87.6519                56.2809

                    100                    101                    102
                      A                      A                      A
 Frequencies --   3066.4157              3072.4802              3079.1012
 Red. masses --      1.0447                 1.0743                 1.0791
 Frc consts  --      5.7878                 5.9752                 6.0278
 IR Inten    --     75.5535               529.7815               289.2582

                    103                    104                    105
                      A                      A                      A
 Frequencies --   3080.4990              3091.8303              3107.7283
 Red. masses --      1.0618                 1.0901                 1.1013
 Frc consts  --      5.9363                 6.1398                 6.2670
 IR Inten    --     16.4101                95.0892                15.2050

                    106                    107                    108
                      A                      A                      A
 Frequencies --   3114.6941              3137.4428              3138.0302
 Red. masses --      1.1017                 1.1034                 1.0958
 Frc consts  --      6.2971                 6.3996                 6.3576
 IR Inten    --      1.2159                65.3143                41.0204

                    109                    110                    111
                      A                      A                      A
 Frequencies --   3139.2796              3160.5490              3200.8218
 Red. masses --      1.1010                 1.1022                 1.0908
 Frc consts  --      6.3928                 6.4871                 6.5842
 IR Inten    --     43.4882                37.9319              1606.6039

                    112                    113                    114
                      A                      A                      A
 Frequencies --   3220.9047              3238.5409              3301.5225
 Red. masses --      1.0911                 1.0944                 1.0905
 Frc consts  --      6.6690                 6.7629                 7.0035
 IR Inten    --    122.1850                 7.6122                23.0363

 - Thermochemistry -
 -------------------
 Temperature   298.150 Kelvin.  Pressure   1.00000 Atm.
 Atom     1 has atomic number  6 and mass  12.00000

 Molecular mass:   353.08798 amu.
 Principal axes and moments of inertia in atomic units:
                           1         2         3
     Eigenvalues --  5835.96450********************
           X            0.99991   0.01331  -0.00020
           Y           -0.01331   0.99991  -0.00092
           Z            0.00019   0.00093   1.00000
 This molecule is an asymmetric top.
 Rotational symmetry number  1.
 Warning -- assumption of classical behavior for rotation
           may cause significant error
 Rotational temperatures (Kelvin)      0.01484     0.00517     0.00390
 Rotational constants (GHZ):           0.30924     0.10773     0.08132
 Zero-point vibrational energy     806964.2 (Joules/Mol)
                                  192.86907 (Kcal/Mol)
 Warning -- explicit consideration of  36 degrees of freedom as
           vibrations may cause significant error
 Vibrational temperatures:     19.20    26.09    27.15    44.78    64.62
          (Kelvin)             68.07    73.78    84.74    86.23    98.87
                              118.69   149.96   167.11   179.09   211.53
                              241.56   244.81   286.21   317.02   332.16
                              339.91   374.25   434.70   444.45   455.79
                              496.19   507.24   544.27   606.61   655.13
                              670.72   747.55   760.66   779.83   839.76
                              858.57   946.06   950.82   964.08  1008.52
                             1062.50  1082.91  1103.20  1114.24  1126.76
                             1176.54  1184.25  1242.83  1277.91  1292.90
                             1326.65  1360.82  1373.15  1378.84  1452.55
                             1470.61  1499.37  1509.76  1557.60  1593.19
                             1600.56  1653.89  1660.77  1696.20  1709.01
                             1720.43  1723.99  1774.14  1831.75  1849.76
                             1850.16  1877.91  1901.42  1902.94  1915.05
                             1920.12  1978.29  2022.84  2044.03  2048.94
                             2064.73  2117.26  2134.10  2144.70  2174.25
                             2179.02  2191.29  2191.84  2198.80  2217.24
                             2224.73  2335.03  2365.28  2415.96  2430.55
                             2472.40  2574.66  4337.00  4408.29  4411.88
                             4420.61  4430.13  4432.15  4448.45  4471.32
                             4481.34  4514.07  4514.92  4516.72  4547.32
                             4605.26  4634.16  4659.53  4750.15

 Zero-point correction=                           0.307356 (Hartree/Particle)
 Thermal correction to Energy=                    0.332054
 Thermal correction to Enthalpy=                  0.332998
 Thermal correction to Gibbs Free Energy=         0.246361
 Sum of electronic and zero-point Energies=          -1638.032758
 Sum of electronic and thermal Energies=             -1638.008060
 Sum of electronic and thermal Enthalpies=           -1638.007116
 Sum of electronic and thermal Free Energies=        -1638.093753

                     E (Thermal)             CV                S
                      KCal/Mol        Cal/Mol-Kelvin    Cal/Mol-Kelvin
 Total                  208.367             85.580            182.342
 Electronic               0.000              0.000              0.000
 Translational            0.889              2.981             43.478
 Rotational               0.889              2.981             36.027
 Vibrational            206.589             79.618            102.836
 Vibration     1          0.593              1.987              7.438
 Vibration     2          0.593              1.986              6.829
 Vibration     3          0.593              1.986              6.750
 Vibration     4          0.594              1.983              5.757
 Vibration     5          0.595              1.979              5.030
 Vibration     6          0.595              1.979              4.927
 Vibration     7          0.596              1.977              4.768
 Vibration     8          0.596              1.974              4.494
 Vibration     9          0.597              1.973              4.459
 Vibration    10          0.598              1.969              4.190
 Vibration    11          0.600              1.961              3.831
 Vibration    12          0.605              1.946              3.374
 Vibration    13          0.608              1.936              3.164
 Vibration    14          0.610              1.929              3.030
 Vibration    15          0.617              1.906              2.710
 Vibration    16          0.625              1.882              2.459
 Vibration    17          0.625              1.879              2.434
 Vibration    18          0.637              1.841              2.143
 Vibration    19          0.647              1.810              1.956
 Vibration    20          0.653              1.794              1.872
 Vibration    21          0.655              1.785              1.831
 Vibration    22          0.668              1.746              1.661
 Vibration    23          0.694              1.670              1.405
 Vibration    24          0.698              1.657              1.368
 Vibration    25          0.704              1.642              1.327
 Vibration    26          0.723              1.586              1.190
 Vibration    27          0.729              1.570              1.155
 Vibration    28          0.749              1.516              1.046
 Vibration    29          0.784              1.423              0.887
 Vibration    30          0.814              1.349              0.780
 Vibration    31          0.824              1.325              0.748
 Vibration    32          0.875              1.207              0.611
 Vibration    33          0.884              1.187              0.590
 Vibration    34          0.897              1.157              0.561
 Vibration    35          0.941              1.067              0.479
 Vibration    36          0.955              1.039              0.455

 Optimization completed on the basis of negligible forces.
    -- Stationary point found.
 Normal termination of Gaussian 09 at Wed Feb 27 17:15:42 2019.
