 Gaussian 09, Revision E.01,

 ----------------------------------------------------------------------
 # M062X/Gen 6D SCF=Tight INT(grid=ultrafine) OPT=CalcFC IOP(2/17=4) SC
 RF=(SMD,Solvent=h2o) maxdisk=2684354560
 ----------------------------------------------------------------------

 ---------------------------------------
 3TFM4Chloro_EtO.M062X_6-31pGd_opt_water
 ---------------------------------------
 Symbolic Z-matrix:
 Charge = -1 Multiplicity = 1

 SCF Done:  E(RM062X) =  -1638.36791143     A.U. after   15 cycles
 SCF Done:  E(RM062X) =  -1638.38614506     A.U. after   13 cycles
 SCF Done:  E(RM062X) =  -1638.40675903     A.U. after   15 cycles
 SCF Done:  E(RM062X) =  -1638.40974084     A.U. after   14 cycles
 SCF Done:  E(RM062X) =  -1638.40346044     A.U. after   15 cycles
 SCF Done:  E(RM062X) =  -1638.40977150     A.U. after   10 cycles
 SCF Done:  E(RM062X) =  -1638.41031048     A.U. after   15 cycles
 SCF Done:  E(RM062X) =  -1638.40976218     A.U. after   15 cycles
 SCF Done:  E(RM062X) =  -1638.41081115     A.U. after   11 cycles
 SCF Done:  E(RM062X) =  -1638.40930609     A.U. after   15 cycles
 SCF Done:  E(RM062X) =  -1638.41133472     A.U. after   11 cycles
 SCF Done:  E(RM062X) =  -1638.41133829     A.U. after   11 cycles
 SCF Done:  E(RM062X) =  -1638.41133793     A.U. after   10 cycles
 SCF Done:  E(RM062X) =  -1638.41133798     A.U. after    9 cycles
 SCF Done:  E(RM062X) =  -1638.41133797     A.U. after    8 cycles
 SCF Done:  E(RM062X) =  -1638.41133804     A.U. after    8 cycles
 SCF Done:  E(RM062X) =  -1638.41133805     A.U. after    8 cycles
 SCF Done:  E(RM062X) =  -1638.41133806     A.U. after    8 cycles
 SCF Done:  E(RM062X) =  -1638.41133804     A.U. after    8 cycles
 Optimization completed.
    -- Stationary point found.
 Normal termination of Gaussian 09 at Wed Feb 27 16:00:56 2019.
 Gaussian 09:  ES64L-G09RevE.01 30-Nov-2015

 ----------------------------------------------------------------------
 # M062X/Gen 6D SCF=Tight INT(grid=ultrafine) SCRF=(SMD,Solvent=h2o) Fr
 eq=Noraman maxdisk=2684354560 geom=check guess=read IOP(2/17=4)
 ----------------------------------------------------------------------

 ---------------------------------------
 3TFM4Chloro_EtO.M062X_6-31pGd_opt_water
 ---------------------------------------
 Structure from the checkpoint file:  "3TFM4Chloro_EtO.M062X_6-31pGd_opt_water.chk"
 Charge = -1 Multiplicity = 1

                         Standard orientation:
 ---------------------------------------------------------------------
 Center     Atomic      Atomic             Coordinates (Angstroms)
 Number     Number       Type             X           Y           Z
 ---------------------------------------------------------------------
      1          6           0        5.580985   -3.755251   -0.145512
      2          6           0        4.811478   -2.444860   -0.014070
      3          6           0        3.313147   -2.671889   -0.153794
      4          7           0        2.597193   -1.410586   -0.030780
      5          6           0        1.252674   -1.369498   -0.105293
      6          8           0        0.561438   -2.387779   -0.298907
      7          7           0        0.715443   -0.107171    0.042164
      8          6           0       -0.629893    0.250027   -0.005590
      9          6           0       -1.693519   -0.659566    0.070707
     10          6           0       -0.923647    1.619719   -0.104775
     11          6           0       -2.234466    2.070663   -0.134094
     12          6           0       -3.285269    1.161330   -0.069671
     13          6           0       -3.010007   -0.202343    0.033656
     14          1           0        6.657841   -3.591296   -0.042965
     15          1           0        5.401831   -4.218418   -1.122219
     16          1           0        5.273597   -4.468966    0.626981
     17          1           0        5.143315   -1.734903   -0.781774
     18          1           0        5.018211   -1.983925    0.959774
     19          1           0        2.968220   -3.372506    0.617279
     20          1           0        3.093044   -3.127095   -1.127250
     21          1           0        3.131915   -0.561440    0.193875
     22          1           0       -1.497432   -1.717399    0.162769
     23          1           0       -0.109647    2.337389   -0.159102
     24          1           0       -2.442767    3.132952   -0.212028
     25         17           0       -4.921837    1.768534   -0.120175
     26          6           0       -4.126510   -1.208616    0.111955
     27          9           0       -3.674507   -2.468487    0.213165
     28          9           0       -4.921516   -1.174803   -0.976472
     29          9           0       -4.926800   -1.002369    1.176976
     30          1           0        1.382627    0.681446    0.063236
     31          8           0        4.236300    0.900467    0.589582
     32          8           0        2.474619    2.140927   -0.005199
     33          6           0        3.706180    1.998400    0.243061
     34          6           0        4.632355    3.205224    0.126603
     35          6           0        3.954322    4.505142   -0.281347
     36          1           0        5.417631    2.935118   -0.589742
     37          1           0        5.135113    3.316163    1.094864
     38          1           0        3.473717    4.411129   -1.260024
     39          1           0        4.687594    5.315631   -0.341416
     40          1           0        3.187544    4.796459    0.443182
 ---------------------------------------------------------------------

 SCF Done:  E(RM062X) =  -1638.41133804     A.U. after    1 cycles

 The electronic state is 1-A.
 Alpha  occ. eigenvalues -- -102.68181 -25.30971 -25.30598 -25.30588 -19.61734
 Alpha  occ. eigenvalues --  -19.60653 -19.60237 -14.78827 -14.77154 -10.82075
 Alpha  occ. eigenvalues --  -10.68478 -10.65038 -10.62756 -10.61521 -10.59598
 Alpha  occ. eigenvalues --  -10.57334 -10.57173 -10.57034 -10.56709 -10.53835
 Alpha  occ. eigenvalues --  -10.53621 -10.52773 -10.52597  -9.82825  -7.55231
 Alpha  occ. eigenvalues --   -7.54566  -7.54550  -1.47437  -1.38173  -1.37834
 Alpha  occ. eigenvalues --   -1.17449  -1.16477  -1.06702  -1.05526  -1.02445
 Alpha  occ. eigenvalues --   -1.00639  -0.94316  -0.89833  -0.87663  -0.85727
 Alpha  occ. eigenvalues --   -0.83976  -0.81288  -0.77167  -0.73932  -0.72190
 Alpha  occ. eigenvalues --   -0.71891  -0.69713  -0.69520  -0.67877  -0.67556
 Alpha  occ. eigenvalues --   -0.65312  -0.62506  -0.59368  -0.58632  -0.57968
 Alpha  occ. eigenvalues --   -0.57865  -0.56730  -0.55325  -0.55067  -0.53798
 Alpha  occ. eigenvalues --   -0.53400  -0.53072  -0.53050  -0.52747  -0.51760
 Alpha  occ. eigenvalues --   -0.51687  -0.51053  -0.50482  -0.50106  -0.48580
 Alpha  occ. eigenvalues --   -0.48019  -0.46390  -0.45997  -0.45435  -0.45285
 Alpha  occ. eigenvalues --   -0.44270  -0.43402  -0.42229  -0.41691  -0.41377
 Alpha  occ. eigenvalues --   -0.39579  -0.39483  -0.38918  -0.38588  -0.36842
 Alpha  occ. eigenvalues --   -0.35492  -0.33799  -0.33091  -0.32783  -0.32344
 Alpha  occ. eigenvalues --   -0.31892  -0.26809
 Alpha virt. eigenvalues --   -0.00680   0.00687   0.01572   0.02454   0.03037
 Alpha virt. eigenvalues --    0.03455   0.03883   0.04282   0.04347   0.04991
 Alpha virt. eigenvalues --    0.05613   0.05677   0.05968   0.06337   0.06667

 Mulliken charges:
               1
     1  C   -0.818432
     2  C   -0.363987
     3  C   -0.147790
     4  N   -0.772620
     5  C    0.761783
     6  O   -0.750559
     7  N   -0.662324
     8  C   -0.330151
     9  C   -0.247621
    10  C    0.006530
    11  C   -0.149990
    12  C    0.463293
    13  C   -1.389731
    14  H    0.222842
    15  H    0.221218
    16  H    0.221253
    17  H    0.236722
    18  H    0.236233
    19  H    0.236558
    20  H    0.237220
    21  H    0.521801
    22  H    0.294509
    23  H    0.278163
    24  H    0.276824
    25  Cl   0.225449
    26  C    1.449265
    27  F   -0.342304
    28  F   -0.278007
    29  F   -0.277494
    30  H    0.526510
    31  O   -0.771721
    32  O   -0.790092
    33  C    0.775887
    34  C   -0.514409
    35  C   -0.740242
    36  H    0.245513
    37  H    0.245326
    38  H    0.222908
    39  H    0.218680
    40  H    0.222988
 Sum of Mulliken charges =  -1.00000

 Dipole moment (field-independent basis, Debye):
    X=             -2.6518    Y=              1.7725    Z=             -0.6368  Tot=              3.2525
 Quadrupole moment (field-independent basis, Debye-Ang):
   XX=           -198.4555   YY=           -156.3092   ZZ=           -148.6437
   XY=            -14.6010   XZ=             -5.7320   YZ=             -2.5080

  Exact polarizability: 363.618 -29.714 308.151   5.895  -5.124 199.013
 Approx polarizability: 292.921 -17.862 256.821   4.953  -4.049 175.744

                      1                      2                      3
                      A                      A                      A
 Frequencies --     10.0560                16.3968                22.1122
 Red. masses --      6.5889                 6.8736                 5.4021
 Frc consts  --      0.0004                 0.0011                 0.0016
 IR Inten    --      0.9762                 0.1875                 2.0008

                      4                      5                      6
                      A                      A                      A
 Frequencies --     39.0054                45.3385                49.5095
 Red. masses --      2.8063                 2.8135                 4.0899
 Frc consts  --      0.0025                 0.0034                 0.0059
 IR Inten    --      0.6471                 4.6156                 5.3436

                      7                      8                      9
                      A                      A                      A
 Frequencies --     53.1433                60.1168                63.0676
 Red. masses --      5.2552                 6.8762                 4.0716
 Frc consts  --      0.0087                 0.0146                 0.0095
 IR Inten    --      1.8338                 4.0201                 4.8799

                     10                     11                     12
                      A                      A                      A
 Frequencies --     65.2432                84.0157               100.6093
 Red. masses --      3.7931                 5.3184                 4.7761
 Frc consts  --      0.0095                 0.0221                 0.0285
 IR Inten    --      0.8499                11.1155                22.9384

                     13                     14                     15
                      A                      A                      A
 Frequencies --    111.1545               113.4918               144.2563
 Red. masses --      7.5475                 5.2387                 5.6924
 Frc consts  --      0.0549                 0.0398                 0.0698
 IR Inten    --     15.5184                 1.4837                 1.7169

                     16                     17                     18
                      A                      A                      A
 Frequencies --    158.5977               162.0348               180.0147
 Red. masses --      4.7235                 5.0711                 8.4233
 Frc consts  --      0.0700                 0.0784                 0.1608
 IR Inten    --     17.0016                14.9895                 7.4721

                     19                     20                     21
                      A                      A                      A
 Frequencies --    230.4903               238.3102               243.8460
 Red. masses --      6.7234                 1.1413                 1.0939
 Frc consts  --      0.2104                 0.0382                 0.0383
 IR Inten    --      0.3483                 0.0635                 1.7859

                     22                     23                     24
                      A                      A                      A
 Frequencies --    259.0977               304.6142               308.3607
 Red. masses --      5.8609                 4.9538                 8.7375
 Frc consts  --      0.2318                 0.2708                 0.4895
 IR Inten    --     10.8995                 4.1531                12.6207

                     25                     26                     27
                      A                      A                      A
 Frequencies --    314.5973               347.9390               352.0277
 Red. masses --      6.9890                 4.8827                 6.0916
 Frc consts  --      0.4075                 0.3483                 0.4448
 IR Inten    --      2.0910                18.5858                 0.7655

                     28                     29                     30
                      A                      A                      A
 Frequencies --    378.8094               419.3022               455.8559
 Red. masses --      8.8180                 5.4600                 6.8902
 Frc consts  --      0.7455                 0.5656                 0.8436
 IR Inten    --      4.7733                29.8370                 4.0730

                     31                     32                     33
                      A                      A                      A
 Frequencies --    463.0957               518.3487               525.5394
 Red. masses --      3.8482                 5.6892                 6.2008
 Frc consts  --      0.4862                 0.9006                 1.0090
 IR Inten    --      4.7188                28.4585                37.4154

                     34                     35                     36
                      A                      A                      A
 Frequencies --    537.8165               579.2722               594.9688
 Red. masses --      7.3337                 1.9239                 8.8543
 Frc consts  --      1.2498                 0.3804                 1.8467
 IR Inten    --     15.5907                 1.5534                 6.9532

                     37                     38                     39
                      A                      A                      A
 Frequencies --    645.7776               652.1808               656.8818
 Red. masses --      1.5025                 4.5622                 2.6780
 Frc consts  --      0.3692                 1.1433                 0.6808
 IR Inten    --    154.1604                17.4014                65.4045

                     40                     41                     42
                      A                      A                      A
 Frequencies --    667.9375               702.6564               739.4109
 Red. masses --      8.0534                 6.9008                 4.4798
 Frc consts  --      2.1169                 2.0074                 1.4430
 IR Inten    --     39.3329                24.9365                 5.2517

                     43                     44                     45
                      A                      A                      A
 Frequencies --    756.4665               762.9601               770.6116
 Red. masses --      1.8690                 1.2987                 8.9181
 Frc consts  --      0.6302                 0.4454                 3.1203
 IR Inten    --     87.0562                14.9538                 3.1746

                     46                     47                     48
                      A                      A                      A
 Frequencies --    785.0795               810.5708               820.4893
 Red. masses --      5.2077                 1.4874                 1.4916
 Frc consts  --      1.8911                 0.5758                 0.5916
 IR Inten    --      2.0392               111.3628                64.1515

                     49                     50                     51
                      A                      A                      A
 Frequencies --    859.5427               886.8508               904.5603
 Red. masses --      1.4223                 3.8971                 1.1511
 Frc consts  --      0.6191                 1.8059                 0.5549
 IR Inten    --     84.5778                34.7865                 1.2237

                     52                     53                     54
                      A                      A                      A
 Frequencies --    911.5291               927.0800               953.7122
 Red. masses --      1.5203                 1.8296                 4.3287
 Frc consts  --      0.7443                 0.9265                 2.3198
 IR Inten    --     52.5959                 2.4158                15.5349

                     55                     56                     57
                      A                      A                      A
 Frequencies --    998.6476              1028.2958              1043.8390
 Red. masses --      1.3343                 1.6445                 5.6608
 Frc consts  --      0.7840                 1.0245                 3.6341
 IR Inten    --      0.1818                13.6122                32.9625

                     58                     59                     60
                      A                      A                      A
 Frequencies --   1051.3162              1084.5275              1108.9931
 Red. masses --      4.3053                 2.5370                 1.7822
 Frc consts  --      2.8036                 1.7581                 1.2914
 IR Inten    --     20.6230                 8.3438                 1.9072

                     61                     62                     63
                      A                      A                      A
 Frequencies --   1113.3489              1148.9670              1153.4787
 Red. masses --      2.3426                 2.2743                 2.7714
 Frc consts  --      1.7109                 1.7689                 2.1726
 IR Inten    --     16.7273                90.0196                52.6744

                     64                     65                     66
                      A                      A                      A
 Frequencies --   1165.1676              1176.0720              1180.0030
 Red. masses --     12.6323                 2.7980                 2.2850
 Frc consts  --     10.1043                 2.2801                 1.8746
 IR Inten    --    445.7424                31.4652                54.5571

                     67                     68                     69
                      A                      A                      A
 Frequencies --   1180.4549              1209.3625              1280.0777
 Red. masses --      1.8528                 2.3765                 1.1938
 Frc consts  --      1.5212                 2.0479                 1.1525
 IR Inten    --     19.5968               324.4396                 0.3633

                     70                     71                     72
                      A                      A                      A
 Frequencies --   1283.1448              1291.0946              1298.2498
 Red. masses --      2.2916                 1.1697                 1.7061
 Frc consts  --      2.2230                 1.1488                 1.6942
 IR Inten    --     50.7749                 0.5145               454.7950

                     73                     74                     75
                      A                      A                      A
 Frequencies --   1309.1536              1322.2132              1325.9662
 Red. masses --      3.0446                 1.9166                 1.0780
 Frc consts  --      3.0744                 1.9742                 1.1166
 IR Inten    --    300.5389               155.3596                 2.5577

                     76                     77                     78
                      A                      A                      A
 Frequencies --   1337.1938              1361.5487              1389.6458
 Red. masses --      1.7359                 1.8580                 4.7959
 Frc consts  --      1.8288                 2.0293                 5.4566
 IR Inten    --     79.7418               366.7749               269.7515

                     79                     80                     81
                      A                      A                      A
 Frequencies --   1421.1637              1421.8153              1431.0784
 Red. masses --      1.2857                 1.3144                 1.6925
 Frc consts  --      1.5299                 1.5656                 2.0423
 IR Inten    --      1.2773                37.2213                24.1054

                     82                     83                     84
                      A                      A                      A
 Frequencies --   1455.6549              1472.9184              1476.1251
 Red. masses --      1.3536                 2.7956                 5.2143
 Frc consts  --      1.6899                 3.5734                 6.6942
 IR Inten    --    173.5013               245.5389               375.0416

                     85                     86                     87
                      A                      A                      A
 Frequencies --   1489.6890              1501.1410              1502.4161
 Red. masses --      1.0597                 1.0395                 1.0398
 Frc consts  --      1.3856                 1.3802                 1.3828
 IR Inten    --      5.4567                11.3509                11.5013

                     88                     89                     90
                      A                      A                      A
 Frequencies --   1507.8075              1511.6219              1530.2418
 Red. masses --      1.1241                 1.0822                 1.0996
 Frc consts  --      1.5058                 1.4570                 1.5170
 IR Inten    --     81.2743                 2.6085                59.7221

                     91                     92                     93
                      A                      A                      A
 Frequencies --   1537.1821              1554.3163              1604.2704
 Red. masses --      2.7824                 7.1730                 2.9276
 Frc consts  --      3.8737                10.2101                 4.4394
 IR Inten    --    528.0038               831.2791               482.7036

                     94                     95                     96
                      A                      A                      A
 Frequencies --   1617.3810              1659.9019              1691.2066
 Red. masses --      1.9633                 8.3912                 5.9551
 Frc consts  --      3.0259                13.6220                10.0353
 IR Inten    --   1695.6680               129.6557                24.8459

                     97                     98                     99
                      A                      A                      A
 Frequencies --   1719.5179              3067.7648              3075.8688
 Red. masses --      1.9604                 1.0588                 1.0485
 Frc consts  --      3.4151                 5.8707                 5.8446
 IR Inten    --    524.5557                36.4002                17.3082

                    100                    101                    102
                      A                      A                      A
 Frequencies --   3077.1602              3084.0669              3085.4525
 Red. masses --      1.0473                 1.0465                 1.0514
 Frc consts  --      5.8429                 5.8647                 5.8974
 IR Inten    --    119.5883                59.1489                 8.1247

                    103                    104                    105
                      A                      A                      A
 Frequencies --   3099.0929              3119.8822              3121.0200
 Red. masses --      1.1040                 1.1061                 1.1015
 Frc consts  --      6.2471                 6.3435                 6.3219
 IR Inten    --     11.7465                56.4663                 8.3899

                    106                    107                    108
                      A                      A                      A
 Frequencies --   3146.0033              3154.4989              3155.7337
 Red. masses --      1.1038                 1.1025                 1.1022
 Frc consts  --      6.4369                 6.4637                 6.4670
 IR Inten    --     94.8123                54.0283                48.8537

                    109                    110                    111
                      A                      A                      A
 Frequencies --   3159.4330              3231.6106              3240.4305
 Red. masses --      1.1036                 1.0885                 1.0906
 Frc consts  --      6.4903                 6.6979                 6.7471
 IR Inten    --     58.2477              1120.1354                12.8588

                    112                    113                    114
                      A                      A                      A
 Frequencies --   3254.6831              3312.4179              3337.1825
 Red. masses --      1.0958                 1.0913                 1.0864
 Frc consts  --      6.8391                 7.0550                 7.1283
 IR Inten    --      0.2509                23.7726              1420.6636

 - Thermochemistry -
 -------------------
 Temperature   298.150 Kelvin.  Pressure   1.00000 Atm.
 Atom     1 has atomic number  6 and mass  12.00000

 Molecular mass:   353.08798 amu.
 Principal axes and moments of inertia in atomic units:
                           1         2         3
     Eigenvalues --  5772.58749********************
           X            0.99993  -0.01139  -0.00088
           Y            0.01139   0.99993  -0.00064
           Z            0.00089   0.00063   1.00000
 This molecule is an asymmetric top.
 Rotational symmetry number  1.
 Warning -- assumption of classical behavior for rotation
           may cause significant error
 Rotational temperatures (Kelvin)      0.01500     0.00503     0.00384
 Rotational constants (GHZ):           0.31264     0.10477     0.08008
 Zero-point vibrational energy     804089.5 (Joules/Mol)
                                  192.18200 (Kcal/Mol)
 Warning -- explicit consideration of  36 degrees of freedom as
           vibrations may cause significant error
 Vibrational temperatures:     14.47    23.59    31.81    56.12    65.23
          (Kelvin)             71.23    76.46    86.49    90.74    93.87
                              120.88   144.75   159.93   163.29   207.55
                              228.19   233.13   259.00   331.62   342.87
                              350.84   372.78   438.27   443.66   452.63
                              500.61   506.49   545.02   603.28   655.87
                              666.29   745.79   756.13   773.80   833.44
                              856.03   929.13   938.34   945.11   961.01
                             1010.96  1063.85  1088.39  1097.73  1108.74
                             1129.55  1166.23  1180.50  1236.69  1275.98
                             1301.46  1311.49  1333.86  1372.18  1436.83
                             1479.49  1501.85  1512.61  1560.39  1595.59
                             1601.86  1653.11  1659.60  1676.41  1692.10
                             1697.76  1698.41  1740.00  1841.74  1846.16
                             1857.59  1867.89  1883.58  1902.37  1907.77
                             1923.92  1958.96  1999.39  2044.73  2045.67
                             2059.00  2094.36  2119.20  2123.81  2143.33
                             2159.80  2161.64  2169.40  2174.88  2201.67
                             2211.66  2236.31  2308.18  2327.05  2388.23
                             2433.27  2474.00  4413.82  4425.48  4427.34
                             4437.28  4439.27  4458.90  4488.81  4490.45
                             4526.39  4538.61  4540.39  4545.71  4649.56
                             4662.25  4682.76  4765.82  4801.46

 Zero-point correction=                           0.306262 (Hartree/Particle)
 Thermal correction to Energy=                    0.331127
 Thermal correction to Enthalpy=                  0.332072
 Thermal correction to Gibbs Free Energy=         0.245096
 Sum of electronic and zero-point Energies=          -1638.105077
 Sum of electronic and thermal Energies=             -1638.080211
 Sum of electronic and thermal Enthalpies=           -1638.079266
 Sum of electronic and thermal Free Energies=        -1638.166242

                     E (Thermal)             CV                S
                      KCal/Mol        Cal/Mol-Kelvin    Cal/Mol-Kelvin
 Total                  207.786             86.383            183.056
 Electronic               0.000              0.000              0.000
 Translational            0.889              2.981             43.478
 Rotational               0.889              2.981             36.059
 Vibrational            206.008             80.422            103.518
 Vibration     1          0.593              1.987              8.000
 Vibration     2          0.593              1.986              7.029
 Vibration     3          0.593              1.985              6.435
 Vibration     4          0.594              1.981              5.309
 Vibration     5          0.595              1.979              5.011
 Vibration     6          0.595              1.978              4.837
 Vibration     7          0.596              1.976              4.697
 Vibration     8          0.597              1.973              4.453
 Vibration     9          0.597              1.972              4.359
 Vibration    10          0.597              1.971              4.292
 Vibration    11          0.601              1.960              3.795
 Vibration    12          0.604              1.949              3.442
 Vibration    13          0.607              1.940              3.249
 Vibration    14          0.607              1.938              3.208
 Vibration    15          0.616              1.909              2.747
 Vibration    16          0.621              1.893              2.566
 Vibration    17          0.622              1.889              2.526
 Vibration    18          0.629              1.867              2.328
 Vibration    19          0.652              1.794              1.875
 Vibration    20          0.656              1.782              1.815
 Vibration    21          0.659              1.773              1.775
 Vibration    22          0.668              1.747              1.668
 Vibration    23          0.696              1.665              1.391
 Vibration    24          0.698              1.658              1.371
 Vibration    25          0.702              1.646              1.338
 Vibration    26          0.726              1.579              1.176
 Vibration    27          0.729              1.571              1.157
 Vibration    28          0.749              1.515              1.044
 Vibration    29          0.782              1.428              0.894
 Vibration    30          0.814              1.348              0.778
 Vibration    31          0.821              1.332              0.757
 Vibration    32          0.873              1.209              0.614
 Vibration    33          0.880              1.193              0.597
 Vibration    34          0.893              1.166              0.570
 Vibration    35          0.936              1.076              0.487
 Vibration    36          0.953              1.042              0.458

 Optimization completed.
    -- Stationary point found.
 Normal termination of Gaussian 09 at Wed Feb 27 16:56:03 2019.
