 Gaussian 09, Revision E.01,

 ----------------------------------------------------------------------
 # M062X/Gen 6D SCF=Tight INT(grid=ultrafine) OPT=(CalcFC,MaxStep=1) IO
 P(2/17=4) SCRF=(SMD,Solvent=h2o) maxdisk=3221225472
 ----------------------------------------------------------------------

 --------------------------------
 4SF5_EtO.M062X_6-31pGd_opt_water
 --------------------------------
 Symbolic Z-matrix:
 Charge = -1 Multiplicity = 1

 SCF Done:  E(RM062X) =  -1738.40713563     A.U. after   15 cycles
 SCF Done:  E(RM062X) =  -1738.40714206     A.U. after   10 cycles
 SCF Done:  E(RM062X) =  -1738.40715049     A.U. after   10 cycles
 SCF Done:  E(RM062X) =  -1738.40727789     A.U. after   10 cycles
 SCF Done:  E(RM062X) =  -1738.40773870     A.U. after   14 cycles
 SCF Done:  E(RM062X) =  -1738.40248825     A.U. after   15 cycles
 SCF Done:  E(RM062X) =  -1738.40811331     A.U. after   10 cycles
 SCF Done:  E(RM062X) =  -1738.40815643     A.U. after   13 cycles
 SCF Done:  E(RM062X) =  -1738.40851457     A.U. after   13 cycles
 SCF Done:  E(RM062X) =  -1738.40864847     A.U. after   13 cycles
 SCF Done:  E(RM062X) =  -1738.40869709     A.U. after   14 cycles
 SCF Done:  E(RM062X) =  -1738.40874758     A.U. after   12 cycles
 SCF Done:  E(RM062X) =  -1738.40875475     A.U. after   11 cycles
 SCF Done:  E(RM062X) =  -1738.40875573     A.U. after   11 cycles
 SCF Done:  E(RM062X) =  -1738.40875632     A.U. after   10 cycles
 SCF Done:  E(RM062X) =  -1738.40875698     A.U. after    9 cycles
 SCF Done:  E(RM062X) =  -1738.40875732     A.U. after    9 cycles
 SCF Done:  E(RM062X) =  -1738.40875747     A.U. after    9 cycles
 SCF Done:  E(RM062X) =  -1738.40875756     A.U. after    8 cycles
 Optimization completed.
    -- Stationary point found.

 1\1\GINC-R4227\FOpt\RM062X\Gen\C13H18F5N2O3S1(1-)\ROOT\01-Mar-2019\0\\
 # M062X/Gen 6D SCF=Tight INT(grid=ultrafine) OPT=(CalcFC,MaxStep=1) IO
 P(2/17=4) SCRF=(SMD,Solvent=h2o) maxdisk=3221225472\\4SF5_EtO.M062X_6-
 31pGd_opt_water\\-1,1\C,-2.1381338244,2.3236995085,-0.1520202739\C,-0.
 799218178,1.611481992,0.011650082\C,0.3617149145,2.5702167624,-0.21030
 17273\N,1.6315453223,1.8755863898,-0.0527003912\C,2.7963674252,2.53755
 07366,-0.1852644659\O,2.849768116,3.7523478117,-0.4518108161\N,3.91840
 21746,1.7503993719,-0.0061384464\C,5.2506577073,2.1345969146,-0.074482

 Normal termination of Gaussian 09 at Fri Mar  1 11:30:04 2019.
 Gaussian 09:  ES64L-G09RevE.01 30-Nov-2015

 ----------------------------------------------------------------------
 # M062X/Gen 6D SCF=Tight INT(grid=ultrafine) SCRF=(SMD,Solvent=h2o) Fr
 eq=Noraman maxdisk=3221225472 geom=check guess=read IOP(2/17=4)
 ----------------------------------------------------------------------

 --------------------------------
 4SF5_EtO.M062X_6-31pGd_opt_water
 --------------------------------
 Structure from the checkpoint file:  "4SF5_EtO.M062X_6-31pGd_opt_water.chk"
 Charge = -1 Multiplicity = 1

                         Standard orientation:
 ---------------------------------------------------------------------
 Center     Atomic      Atomic             Coordinates (Angstroms)
 Number     Number       Type             X           Y           Z
 ---------------------------------------------------------------------
      1          6           0       -6.968717    2.825467   -0.008787
      2          6           0       -5.903145    1.734003   -0.007761
      3          6           0       -4.504658    2.334053   -0.027069
      4          7           0       -3.499719    1.280527   -0.027851
      5          6           0       -2.188057    1.584006   -0.022975
      6          8           0       -1.772069    2.757283   -0.025277
      7          7           0       -1.352270    0.483045   -0.021593
      8          6           0        0.035821    0.464866   -0.013982
      9          6           0        0.853546    1.597643    0.142830
     10          6           0        0.644431   -0.797939   -0.158549
     11          6           0        2.021685   -0.935393   -0.152112
     12          6           0        2.807233    0.205299   -0.000677
     13          6           0        2.237850    1.463754    0.147347
     14          1           0       -7.974066    2.394091    0.005897
     15          1           0       -6.884603    3.454089   -0.902265
     16          1           0       -6.866854    3.472955    0.869259
     17          1           0       -6.030636    1.083196   -0.881651
     18          1           0       -6.013629    1.101681    0.881840
     19          1           0       -4.363071    2.979127    0.849093
     20          1           0       -4.380434    2.963935   -0.916745
     21          1           0       -3.814755    0.300949   -0.002851
     22          1           0       -1.808010   -0.441161   -0.087457
     23          1           0        0.418033    2.578191    0.265138
     24          1           0        0.020712   -1.678838   -0.278064
     25          1           0        2.463775   -1.919488   -0.266468
     26         16           0        4.597256    0.043488    0.006744
     27          1           0        2.853122    2.348861    0.271048
     28          9           0        4.604634   -0.971765   -1.254136
     29          9           0        6.211920   -0.104187    0.013379
     30          9           0        4.810063    1.293055   -1.000182
     31          9           0        4.777777    1.041525    1.268265
     32          9           0        4.571938   -1.223229    1.014738
     33          8           0       -4.585406   -1.399229    0.089932
     34          8           0       -2.494718   -2.134221   -0.201352
     35          6           0       -3.727528   -2.327884    0.000850
     36          6           0       -4.242072   -3.757070    0.146300
     37          6           0       -3.179369   -4.842213    0.051282
     38          1           0       -5.010697   -3.897664   -0.623355
     39          1           0       -4.767216   -3.810424    1.107493
     40          1           0       -2.671260   -4.815694   -0.917632
     41          1           0       -3.632841   -5.831614    0.167974
     42          1           0       -2.421311   -4.723809    0.831761
 ---------------------------------------------------------------------

 SCF Done:  E(RM062X) =  -1738.40875756     A.U. after    1 cycles

 The electronic state is 1-A.
 Alpha  occ. eigenvalues --  -90.32768 -25.30817 -25.30816 -25.30809 -25.30804
 Alpha  occ. eigenvalues --  -25.30689 -19.61795 -19.60638 -19.60239 -14.79056
 Alpha  occ. eigenvalues --  -14.77230 -10.68578 -10.65030 -10.61794 -10.60119
 Alpha  occ. eigenvalues --  -10.57920 -10.57898 -10.57193 -10.56362 -10.56083
 Alpha  occ. eigenvalues --  -10.53836 -10.53617 -10.52774 -10.52595  -8.61450
 Alpha  occ. eigenvalues --   -6.53877  -6.53863  -6.53406  -1.49411  -1.39734
 Alpha  occ. eigenvalues --   -1.39643  -1.36615  -1.35333  -1.17551  -1.16479
 Alpha  occ. eigenvalues --   -1.06712  -1.05647  -1.02324  -0.98634  -0.93167
 Alpha  occ. eigenvalues --   -0.87924  -0.86516  -0.85719  -0.84776  -0.77973
 Alpha  occ. eigenvalues --   -0.74146  -0.73868  -0.73282  -0.72298  -0.71868
 Alpha  occ. eigenvalues --   -0.68460  -0.67784  -0.66372  -0.63672  -0.63183
 Alpha  occ. eigenvalues --   -0.61961  -0.61446  -0.60917  -0.58815  -0.58098
 Alpha  occ. eigenvalues --   -0.56213  -0.55329  -0.55149  -0.55060  -0.54835
 Alpha  occ. eigenvalues --   -0.54128  -0.53750  -0.53460  -0.53016  -0.52754
 Alpha  occ. eigenvalues --   -0.52208  -0.51730  -0.51721  -0.51206  -0.50996
 Alpha  occ. eigenvalues --   -0.50526  -0.49855  -0.48958  -0.46990  -0.46231
 Alpha  occ. eigenvalues --   -0.46124  -0.44702  -0.44379  -0.44073  -0.42333
 Alpha  occ. eigenvalues --   -0.41695  -0.41334  -0.39563  -0.39536  -0.39312
 Alpha  occ. eigenvalues --   -0.38494  -0.35442  -0.33822  -0.32800  -0.32616
 Alpha  occ. eigenvalues --   -0.32301  -0.32067  -0.27493
 Alpha virt. eigenvalues --   -0.01571  -0.00279   0.00914   0.02039   0.03273
 Alpha virt. eigenvalues --    0.03336   0.03770   0.04226   0.04234   0.04451
 Alpha virt. eigenvalues --    0.04664   0.04962   0.05506   0.05916   0.06681

 Mulliken charges:
               1
     1  C   -0.823401
     2  C   -0.352310
     3  C   -0.197771
     4  N   -0.797919
     5  C    0.894310
     6  O   -0.748292
     7  N   -0.655713
     8  C    0.178909
     9  C    0.114864
    10  C   -0.319421
    11  C   -0.023293
    12  C   -0.565871
    13  C   -0.349676
    14  H    0.222858
    15  H    0.221312
    16  H    0.221276
    17  H    0.236713
    18  H    0.236235
    19  H    0.238911
    20  H    0.238541
    21  H    0.525594
    22  H    0.529538
    23  H    0.281727
    24  H    0.276477
    25  H    0.281562
    26  S    2.266238
    27  H    0.279240
    28  F   -0.502549
    29  F   -0.513725
    30  F   -0.502892
    31  F   -0.504096
    32  F   -0.499237
    33  O   -0.771952
    34  O   -0.799827
    35  C    0.775492
    36  C   -0.505007
    37  C   -0.741673
    38  H    0.245419
    39  H    0.245092
    40  H    0.223135
    41  H    0.218712
    42  H    0.222470
 Sum of Mulliken charges =  -1.00000

 Dipole moment (field-independent basis, Debye):
    X=              4.4826    Y=             -0.2458    Z=              0.4118  Tot=              4.5082
 Quadrupole moment (field-independent basis, Debye-Ang):
   XX=           -219.6177   YY=           -164.4538   ZZ=           -154.5078
   XY=             -6.8635   XZ=             -0.1208   YZ=              0.5310

  Exact polarizability: 373.670 -13.932 298.174  -1.873   6.343 203.351
 Approx polarizability: 291.871  -5.548 253.064  -1.247   5.924 179.950

                      1                      2                      3
                      A                      A                      A
 Frequencies --      2.4785                18.8207                24.9831
 Red. masses --      2.5984                 5.7252                 5.7710
 Frc consts  --      0.0000                 0.0012                 0.0021
 IR Inten    --      0.1272                 0.6739                 1.5389

                      4                      5                      6
                      A                      A                      A
 Frequencies --     28.2080                41.9156                43.3164
 Red. masses --      3.0117                 5.5658                 2.1563
 Frc consts  --      0.0014                 0.0058                 0.0024
 IR Inten    --      0.4915                 2.3195                 9.2631

                      7                      8                      9
                      A                      A                      A
 Frequencies --     53.2391                59.8321                62.5788
 Red. masses --      4.8886                 4.7371                 5.3633
 Frc consts  --      0.0082                 0.0100                 0.0124
 IR Inten    --      2.9260                 2.1958                 3.3022

                     10                     11                     12
                      A                      A                      A
 Frequencies --     68.5546                82.4926                92.1438
 Red. masses --      5.0786                 5.0267                 7.2521
 Frc consts  --      0.0141                 0.0202                 0.0363
 IR Inten    --      0.6784                12.0505                11.3510

                     13                     14                     15
                      A                      A                      A
 Frequencies --    108.7260               114.9634               153.6958
 Red. masses --      5.7358                 8.0393                 6.3152
 Frc consts  --      0.0399                 0.0626                 0.0879
 IR Inten    --     12.8390                19.9161                18.6237

                     16                     17                     18
                      A                      A                      A
 Frequencies --    160.9795               173.6071               208.1312
 Red. masses --      2.9566                 7.7231                 6.0977
 Frc consts  --      0.0451                 0.1371                 0.1556
 IR Inten    --     17.6419                 2.0376                 8.1550

                     19                     20                     21
                      A                      A                      A
 Frequencies --    216.9311               236.3686               242.7506
 Red. masses --      6.9204                 1.1446                 1.0966
 Frc consts  --      0.1919                 0.0377                 0.0381
 IR Inten    --      3.4650                 0.0578                 1.8090

                     22                     23                     24
                      A                      A                      A
 Frequencies --    293.2441               307.2919               331.2630
 Red. masses --      6.5560                 4.0420                 9.0123
 Frc consts  --      0.3322                 0.2249                 0.5827
 IR Inten    --      4.0874                 8.3925                 1.7841

                     25                     26                     27
                      A                      A                      A
 Frequencies --    333.0566               337.9507               354.0035
 Red. masses --      6.4182                18.3195                 4.7301
 Frc consts  --      0.4195                 1.2327                 0.3492
 IR Inten    --      2.3195                 0.0132                35.2872

                     28                     29                     30
                      A                      A                      A
 Frequencies --    381.3685               417.6582               437.9696
 Red. masses --      7.6159                 3.0694                 8.3992
 Frc consts  --      0.6526                 0.3155                 0.9492
 IR Inten    --     24.2901                 0.0913                 0.4602

                     31                     32                     33
                      A                      A                      A
 Frequencies --    440.6903               451.3544               491.1618
 Red. masses --      7.2925                18.7519                 4.3932
 Frc consts  --      0.8344                 2.2508                 0.6244
 IR Inten    --      0.2477                 1.2864                35.8991

                     34                     35                     36
                      A                      A                      A
 Frequencies --    521.1652               532.0381               552.2727
 Red. masses --      5.6562                 4.7199                17.9796
 Frc consts  --      0.9052                 0.7872                 3.2310
 IR Inten    --     30.1239                 1.4572                24.2289

                     37                     38                     39
                      A                      A                      A
 Frequencies --    559.5708               580.4884               582.6436
 Red. masses --      5.0861                 1.9153                15.5770
 Frc consts  --      0.9383                 0.3802                 3.1156
 IR Inten    --     78.7502                 1.0343               162.8722

                     40                     41                     42
                      A                      A                      A
 Frequencies --    603.2920               634.1529               641.8232
 Red. masses --     18.8221                 7.3106                 9.4495
 Frc consts  --      4.0362                 1.7322                 2.2934
 IR Inten    --      0.0228                 6.8986                40.2395

                     43                     44                     45
                      A                      A                      A
 Frequencies --    648.7540               656.2894               684.1532
 Red. masses --      1.4576                 2.7548                 8.8529
 Frc consts  --      0.3615                 0.6991                 2.4414
 IR Inten    --    136.3074                98.3655                 3.7597

                     46                     47                     48
                      A                      A                      A
 Frequencies --    723.2400               753.9067               769.2139
 Red. masses --      3.8473                 1.1462                 3.1512
 Frc consts  --      1.1857                 0.3838                 1.0986
 IR Inten    --      0.0112                17.8550                63.7200

                     49                     50                     51
                      A                      A                      A
 Frequencies --    777.9823               809.4206               819.7333
 Red. masses --      6.4778                 1.3990                 2.0595
 Frc consts  --      2.3100                 0.5400                 0.8154
 IR Inten    --     56.9508               214.0593               266.2449

                     52                     53                     54
                      A                      A                      A
 Frequencies --    821.6547               842.1600               843.1346
 Red. masses --      2.6766                12.7384                 1.2606
 Frc consts  --      1.0646                 5.3230                 0.5280
 IR Inten    --    434.6325               731.2961                63.7762

                     55                     56                     57
                      A                      A                      A
 Frequencies --    853.8915               857.0528               877.3593
 Red. masses --     22.3875                 1.8108                 5.3804
 Frc consts  --      9.6175                 0.7837                 2.4402
 IR Inten    --    638.6421                25.0540                62.0655

                     58                     59                     60
                      A                      A                      A
 Frequencies --    887.8805               900.9260               931.3840
 Red. masses --      3.9356                 1.1519                 1.6602
 Frc consts  --      1.8280                 0.5509                 0.8486
 IR Inten    --     36.4878                 1.6480                 7.7479

                     61                     62                     63
                      A                      A                      A
 Frequencies --    985.1879              1000.8267              1020.2426
 Red. masses --      1.3068                 1.3421                 3.6346
 Frc consts  --      0.7473                 0.7920                 2.2290
 IR Inten    --      1.4072                 0.0188                34.3384

                     64                     65                     66
                      A                      A                      A
 Frequencies --   1027.8489              1050.3396              1083.2935
 Red. masses --      1.6429                 4.3367                 2.5610
 Frc consts  --      1.0226                 2.8188                 1.7707
 IR Inten    --     15.2163                11.8753                 1.3062

                     67                     68                     69
                      A                      A                      A
 Frequencies --   1109.2768              1113.5536              1129.8033
 Red. masses --      1.7886                 2.3514                 2.7861
 Frc consts  --      1.2967                 1.7179                 2.0953
 IR Inten    --      2.1318                15.9093               188.5774

                     70                     71                     72
                      A                      A                      A
 Frequencies --   1149.2834              1164.7971              1178.8370
 Red. masses --      2.0153                 1.5706                 3.2621
 Frc consts  --      1.5683                 1.2555                 2.6709
 IR Inten    --     14.1870                20.4538                 2.5756

                     73                     74                     75
                      A                      A                      A
 Frequencies --   1179.3416              1212.4213              1278.1326
 Red. masses --      1.6262                 1.1518                 1.1939
 Frc consts  --      1.3326                 0.9976                 1.1492
 IR Inten    --      0.1970                29.0042                 0.3699

                     76                     77                     78
                      A                      A                      A
 Frequencies --   1291.9609              1296.1898              1322.0893
 Red. masses --      1.1695                 1.8536                 1.9179
 Frc consts  --      1.1502                 1.8349                 1.9752
 IR Inten    --      0.2076               623.8869                15.1617

                     79                     80                     81
                      A                      A                      A
 Frequencies --   1324.1096              1338.7582              1342.2769
 Red. masses --      1.0733                 1.7375                 1.5669
 Frc consts  --      1.1087                 1.8347                 1.6634
 IR Inten    --      0.2431                90.4576                16.4444

                     82                     83                     84
                      A                      A                      A
 Frequencies --   1357.1311              1377.7134              1419.4507
 Red. masses --      1.8332                 4.7681                 1.2898
 Frc consts  --      1.9893                 5.3323                 1.5311
 IR Inten    --    177.9382               393.8609                 6.3886

                     85                     86                     87
                      A                      A                      A
 Frequencies --   1420.4198              1429.0620              1455.8208
 Red. masses --      1.3149                 1.6997                 1.3867
 Frc consts  --      1.5631                 2.0451                 1.7316
 IR Inten    --     36.9847                43.5910               144.2644

                     88                     89                     90
                      A                      A                      A
 Frequencies --   1456.7460              1472.7147              1486.8589
 Red. masses --      3.1024                 2.6820                 1.0622
 Frc consts  --      3.8789                 3.4272                 1.3836
 IR Inten    --    101.3224               257.8966                 6.3774

                     91                     92                     93
                      A                      A                      A
 Frequencies --   1501.0995              1502.2039              1507.1527
 Red. masses --      1.0395                 1.0399                 1.1270
 Frc consts  --      1.3800                 1.3827                 1.5083
 IR Inten    --     11.0095                11.6219                83.8881

                     94                     95                     96
                      A                      A                      A
 Frequencies --   1510.1641              1529.2125              1549.4107
 Red. masses --      1.0807                 1.0932                 2.5472
 Frc consts  --      1.4521                 1.5063                 3.6028
 IR Inten    --      1.7540                40.2222               404.5003

                     97                     98                     99
                      A                      A                      A
 Frequencies --   1555.7874              1599.0755              1611.8526
 Red. masses --      6.8294                 3.0808                 1.9594
 Frc consts  --      9.7394                 4.6414                 2.9993
 IR Inten    --    817.1028               635.9825              1661.0504

                    100                    101                    102
                      A                      A                      A
 Frequencies --   1661.8476              1681.1730              1723.0525
 Red. masses --      7.5577                 5.1502                 1.9499
 Frc consts  --     12.2977                 8.5763                 3.4108
 IR Inten    --    182.9134               147.2331               526.7975

                    103                    104                    105
                      A                      A                      A
 Frequencies --   3066.5330              3074.3840              3075.9119
 Red. masses --      1.0584                 1.0549                 1.0407
 Frc consts  --      5.8641                 5.8748                 5.8011
 IR Inten    --     33.6966                42.0485                98.8089

                    106                    107                    108
                      A                      A                      A
 Frequencies --   3083.3021              3084.7136              3097.1871
 Red. masses --      1.0454                 1.0526                 1.1046
 Frc consts  --      5.8553                 5.9013                 6.2428
 IR Inten    --     59.4924                 8.1928                11.2424

                    109                    110                    111
                      A                      A                      A
 Frequencies --   3118.3083              3120.4654              3144.9525
 Red. masses --      1.1063                 1.1015                 1.1038
 Frc consts  --      6.3384                 6.3195                 6.4324
 IR Inten    --     57.4610                 8.6574                94.0436

                    112                    113                    114
                      A                      A                      A
 Frequencies --   3153.8091              3154.7109              3158.9517
 Red. masses --      1.1024                 1.1021                 1.1036
 Frc consts  --      6.4605                 6.4626                 6.4885
 IR Inten    --     53.7130                49.7818                58.2355

                    115                    116                    117
                      A                      A                      A
 Frequencies --   3239.4175              3245.0514              3255.1707
 Red. masses --      1.0911                 1.0886                 1.0928
 Frc consts  --      6.7458                 6.7541                 6.8222
 IR Inten    --     15.6928               915.5943                 4.9110

                    118                    119                    120
                      A                      A                      A
 Frequencies --   3257.3179              3310.2100              3311.5190
 Red. masses --      1.0954                 1.0925                 1.0875
 Frc consts  --      6.8478                 7.0534                 7.0265
 IR Inten    --      1.2007                10.7377              1640.0945

 - Thermochemistry -
 -------------------
 Temperature   298.150 Kelvin.  Pressure   1.00000 Atm.
 Atom     1 has atomic number  6 and mass  12.00000

 Molecular mass:   377.09583 amu.
 Principal axes and moments of inertia in atomic units:
                           1         2         3
     Eigenvalues --  5215.11288********************
           X            0.99999  -0.00402  -0.00028
           Y            0.00402   0.99999  -0.00016
           Z            0.00028   0.00016   1.00000
 This molecule is an asymmetric top.
 Rotational symmetry number  1.
 Warning -- assumption of classical behavior for rotation
           may cause significant error
 Rotational temperatures (Kelvin)      0.01661     0.00388     0.00323
 Rotational constants (GHZ):           0.34606     0.08077     0.06740
 Zero-point vibrational energy     836164.3 (Joules/Mol)
                                  199.84806 (Kcal/Mol)
 Warning -- explicit consideration of  40 degrees of freedom as
           vibrations may cause significant error
 Vibrational temperatures:      3.57    27.08    35.95    40.58    60.31
          (Kelvin)             62.32    76.60    86.08    90.04    98.63
                              118.69   132.57   156.43   165.41   221.13
                              231.61   249.78   299.45   312.12   340.08
                              349.26   421.91   442.12   476.61   479.19
                              486.24   509.33   548.70   600.92   630.14
                              634.05   649.40   706.67   749.84   765.48
                              794.60   805.10   835.19   838.29   868.00
                              912.40   923.44   933.41   944.25   984.34
                             1040.58  1084.70  1106.73  1119.34  1164.57
                             1179.41  1182.18  1211.68  1213.08  1228.56
                             1233.11  1262.32  1277.46  1296.23  1340.05
                             1417.46  1439.96  1467.90  1478.84  1511.20
                             1558.62  1596.00  1602.15  1625.53  1653.56
                             1675.88  1696.08  1696.81  1744.40  1838.95
                             1858.84  1864.93  1902.19  1905.10  1926.17
                             1931.23  1952.61  1982.22  2042.27  2043.66
                             2056.10  2094.60  2095.93  2118.91  2139.26
                             2159.74  2161.33  2168.45  2172.79  2200.19
                             2229.25  2238.43  2300.71  2319.09  2391.03
                             2418.83  2479.09  4412.05  4423.35  4425.55
                             4436.18  4438.21  4456.16  4486.54  4489.65
                             4524.88  4537.62  4538.92  4545.02  4660.79
                             4668.90  4683.46  4686.55  4762.65  4764.53

 Zero-point correction=                           0.318478 (Hartree/Particle)
 Thermal correction to Energy=                    0.344314
 Thermal correction to Enthalpy=                  0.345258
 Thermal correction to Gibbs Free Energy=         0.255318
 Sum of electronic and zero-point Energies=          -1738.090279
 Sum of electronic and thermal Energies=             -1738.064444
 Sum of electronic and thermal Enthalpies=           -1738.063499
 Sum of electronic and thermal Free Energies=        -1738.153440

                     E (Thermal)             CV                S
                      KCal/Mol        Cal/Mol-Kelvin    Cal/Mol-Kelvin
 Total                  216.060             92.538            189.295
 Electronic               0.000              0.000              0.000
 Translational            0.889              2.981             43.675
 Rotational               0.889              2.981             36.388
 Vibrational            214.283             86.577            109.233
 Vibration     1          0.592              1.987             10.783
 Vibration     2          0.593              1.986              6.755
 Vibration     3          0.593              1.985              6.193
 Vibration     4          0.593              1.984              5.952
 Vibration     5          0.595              1.980              5.166
 Vibration     6          0.595              1.980              5.101
 Vibration     7          0.596              1.976              4.693
 Vibration     8          0.597              1.973              4.463
 Vibration     9          0.597              1.972              4.374
 Vibration    10          0.598              1.969              4.194
 Vibration    11          0.600              1.961              3.831
 Vibration    12          0.602              1.955              3.614
 Vibration    13          0.606              1.942              3.292
 Vibration    14          0.608              1.937              3.183
 Vibration    15          0.619              1.899              2.626
 Vibration    16          0.622              1.890              2.538
 Vibration    17          0.627              1.875              2.396
 Vibration    18          0.641              1.828              2.060
 Vibration    19          0.646              1.815              1.985
 Vibration    20          0.655              1.785              1.830
 Vibration    21          0.659              1.775              1.783
 Vibration    22          0.688              1.686              1.455
 Vibration    23          0.697              1.660              1.377
 Vibration    24          0.714              1.613              1.254
 Vibration    25          0.715              1.609              1.245
 Vibration    26          0.718              1.600              1.222
 Vibration    27          0.730              1.567              1.148
 Vibration    28          0.751              1.510              1.034
 Vibration    29          0.781              1.432              0.900
 Vibration    30          0.798              1.387              0.833
 Vibration    31          0.801              1.381              0.824
 Vibration    32          0.810              1.358              0.792
 Vibration    33          0.847              1.270              0.681
 Vibration    34          0.876              1.203              0.607
 Vibration    35          0.887              1.179              0.583
 Vibration    36          0.908              1.135              0.539
 Vibration    37          0.915              1.119              0.525
 Vibration    38          0.937              1.074              0.484
 Vibration    39          0.939              1.069              0.480
 Vibration    40          0.962              1.025              0.444

 Optimization completed on the basis of negligible forces.
    -- Stationary point found.

 1\1\GINC-R4227\Freq\RM062X\Gen\C13H18F5N2O3S1(1-)\ROOT\01-Mar-2019\0\\
 # M062X/Gen 6D SCF=Tight INT(grid=ultrafine) SCRF=(SMD,Solvent=h2o) Fr
 eq=Noraman maxdisk=3221225472 geom=check guess=read IOP(2/17=4)\\4SF5_
 EtO.M062X_6-31pGd_opt_water\\-1,1\C,-2.1381338244,2.3236995085,-0.1520
 202739\C,-0.799218178,1.611481992,0.011650082\C,0.3617149145,2.5702167
 624,-0.2103017273\N,1.6315453223,1.8755863898,-0.0527003912\C,2.796367
 4252,2.5375507366,-0.1852644659\O,2.849768116,3.7523478117,-0.45181081
 61\N,3.9184021746,1.7503993719,-0.0061384464\C,5.2506577073,2.13459691

 Normal termination of Gaussian 09 at Fri Mar  1 12:26:14 2019.
