 Gaussian 09, Revision E.01,

 ----------------------------------------------------------------------
 # M062X/Gen 6D SCF=Tight INT(grid=ultrafine) OPT=CalcFC IOP(2/17=4) ma
 xdisk=3221225472
 ----------------------------------------------------------------------

 --------------------------
 4SF5_EtO.M062X_6-31pGd_opt
 --------------------------
 Symbolic Z-matrix:
 Charge = -1 Multiplicity = 1

 SCF Done:  E(RM062X) =  -1738.33930492     A.U. after   15 cycles
 SCF Done:  E(RM062X) =  -1738.33932346     A.U. after   13 cycles
 SCF Done:  E(RM062X) =  -1738.33944333     A.U. after   12 cycles
 SCF Done:  E(RM062X) =  -1738.33944517     A.U. after   12 cycles
 SCF Done:  E(RM062X) =  -1738.33944620     A.U. after   11 cycles
 SCF Done:  E(RM062X) =  -1738.33944639     A.U. after   10 cycles
 SCF Done:  E(RM062X) =  -1738.33944640     A.U. after    8 cycles
 Optimization completed.
    -- Stationary point found.

 1\1\GINC-R3739\FOpt\RM062X\Gen\C13H18F5N2O3S1(1-)\ROOT\24-Feb-2019\0\\
 # M062X/Gen 6D SCF=Tight INT(grid=ultrafine) OPT=CalcFC IOP(2/17=4) ma
 xdisk=3221225472\\4SF5_EtO.M062X_6-31pGd_opt\\-1,1\C,-2.151296941,2.30
 95142078,-0.0573528405\C,-0.7953929468,1.6567221286,0.2006703446\C,0.3
 548580319,2.5558104354,-0.2394818505\N,1.6154617928,1.8883593001,-0.00
 82548755\C,2.7801577031,2.5582794943,-0.1637114767\O,2.8427061826,3.75
 57736752,-0.4530208579\N,3.8939805714,1.7505709156,0.0458980546\C,5.21
 63114766,2.1155412829,-0.0330097143\C,5.6776874046,3.4113670574,-0.345

 Normal termination of Gaussian 09 at Sun Feb 24 12:23:04 2019.
 Gaussian 09:  ES64L-G09RevE.01 30-Nov-2015

 ----------------------------------------------------------------------
 # M062X/Gen 6D SCF=Tight INT(grid=ultrafine) Freq=Noraman maxdisk=3221
 225472 geom=check guess=read IOP(2/17=4)
 ----------------------------------------------------------------------

 --------------------------
 4SF5_EtO.M062X_6-31pGd_opt
 --------------------------
 Structure from the checkpoint file:  "4SF5_EtO.M062X_6-31pGd_opt.chk"
 Charge = -1 Multiplicity = 1

                         Standard orientation:
 ---------------------------------------------------------------------
 Center     Atomic      Atomic             Coordinates (Angstroms)
 Number     Number       Type             X           Y           Z
 ---------------------------------------------------------------------
      1          6           0       -7.024476    2.706796    0.048654
      2          6           0       -5.915888    1.663438    0.165379
      3          6           0       -4.540995    2.272600   -0.087132
      4          7           0       -3.526481    1.247352    0.000661
      5          6           0       -2.215986    1.581531   -0.019437
      6          8           0       -1.811533    2.746142   -0.060720
      7          7           0       -1.379737    0.469721    0.019239
      8          6           0       -0.005763    0.458199    0.011966
      9          6           0        0.809859    1.608263   -0.033743
     10          6           0        0.613983   -0.812857    0.054230
     11          6           0        1.991315   -0.933971    0.051841
     12          6           0        2.776060    0.218694    0.006000
     13          6           0        2.192920    1.480586   -0.036966
     14          1           0       -8.008932    2.266042    0.237038
     15          1           0       -7.042878    3.150778   -0.953745
     16          1           0       -6.877751    3.521100    0.768371
     17          1           0       -6.083000    0.843102   -0.542455
     18          1           0       -5.923601    1.207101    1.162534
     19          1           0       -4.327182    3.060116    0.647249
     20          1           0       -4.519323    2.756177   -1.076685
     21          1           0       -3.825930    0.254807   -0.040343
     22          1           0       -1.831303   -0.469907    0.050267
     23          1           0        0.346211    2.584405   -0.065920
     24          1           0       -0.019391   -1.696152    0.087752
     25          1           0        2.449519   -1.916508    0.085018
     26         16           0        4.563862    0.069500    0.002254
     27          1           0        2.811249    2.371284   -0.072758
     28          9           0        4.559874   -1.132935   -1.084864
     29          9           0        6.182364   -0.067333   -0.000793
     30          9           0        4.752204    1.149482   -1.192321
     31          9           0        4.766149    1.256120    1.088306
     32          9           0        4.573132   -1.026776    1.196456
     33          8           0       -4.475442   -1.394951   -0.124338
     34          8           0       -2.359764   -2.119987    0.077195
     35          6           0       -3.603328   -2.296189   -0.036560
     36          6           0       -4.117204   -3.744565   -0.071328
     37          6           0       -3.026245   -4.804117    0.021790
     38          1           0       -4.699080   -3.856479   -0.994539
     39          1           0       -4.838622   -3.848041    0.748755
     40          1           0       -2.316888   -4.701605   -0.804579
     41          1           0       -3.451144   -5.815090   -0.005374
     42          1           0       -2.455333   -4.689755    0.947728
 ---------------------------------------------------------------------

 SCF Done:  E(RM062X) =  -1738.33944640     A.U. after    1 cycles

 The electronic state is 1-A.
 Alpha  occ. eigenvalues --  -90.23081 -25.21175 -25.21162 -25.21157 -25.21153
 Alpha  occ. eigenvalues --  -25.21001 -19.49405 -19.47482 -19.46951 -14.67098
 Alpha  occ. eigenvalues --  -14.65176 -10.56344 -10.52109 -10.51063 -10.50005
 Alpha  occ. eigenvalues --  -10.48135 -10.48108 -10.47389 -10.45870 -10.45607
 Alpha  occ. eigenvalues --  -10.45607 -10.44844 -10.43213 -10.43169  -8.51767
 Alpha  occ. eigenvalues --   -6.44194  -6.44176  -6.43716  -1.39621  -1.30036
 Alpha  occ. eigenvalues --   -1.29896  -1.26865  -1.25651  -1.05534  -1.03557
 Alpha  occ. eigenvalues --   -0.94283  -0.93750  -0.90984  -0.88414  -0.83096
 Alpha  occ. eigenvalues --   -0.78675  -0.76384  -0.75272  -0.74510  -0.68440
 Alpha  occ. eigenvalues --   -0.64230  -0.64036  -0.63578  -0.61899  -0.61506
 Alpha  occ. eigenvalues --   -0.58924  -0.57394  -0.55654  -0.53860  -0.52563
 Alpha  occ. eigenvalues --   -0.52231  -0.50757  -0.50417  -0.48431  -0.46938
 Alpha  occ. eigenvalues --   -0.45953  -0.45485  -0.45458  -0.45297  -0.45141
 Alpha  occ. eigenvalues --   -0.43960  -0.43475  -0.43004  -0.42459  -0.41804
 Alpha  occ. eigenvalues --   -0.41753  -0.41577  -0.41085  -0.41004  -0.40338
 Alpha  occ. eigenvalues --   -0.40092  -0.38982  -0.37807  -0.37419  -0.36335
 Alpha  occ. eigenvalues --   -0.34743  -0.34428  -0.34362  -0.33858  -0.32923
 Alpha  occ. eigenvalues --   -0.31908  -0.31230  -0.30653  -0.30104  -0.29092
 Alpha  occ. eigenvalues --   -0.27697  -0.22964  -0.22439  -0.20421  -0.19891
 Alpha  occ. eigenvalues --   -0.19722  -0.19166  -0.16182
 Alpha virt. eigenvalues --    0.07470   0.10025   0.10058   0.10849   0.11182
 Alpha virt. eigenvalues --    0.11450   0.11643   0.12300   0.12528   0.12756
 Alpha virt. eigenvalues --    0.13017   0.13111   0.13590   0.14359   0.14713

 Mulliken charges:
               1
     1  C   -0.783017
     2  C   -0.324568
     3  C   -0.202978
     4  N   -0.754040
     5  C    0.813721
     6  O   -0.610758
     7  N   -0.658197
     8  C    0.258485
     9  C    0.058759
    10  C   -0.376562
    11  C    0.009333
    12  C   -0.565615
    13  C   -0.279009
    14  H    0.198191
    15  H    0.200806
    16  H    0.198683
    17  H    0.249642
    18  H    0.225871
    19  H    0.215782
    20  H    0.202576
    21  H    0.522040
    22  H    0.515692
    23  H    0.273858
    24  H    0.280947
    25  H    0.226253
    26  S    2.216975
    27  H    0.222835
    28  F   -0.499529
    29  F   -0.513995
    30  F   -0.501574
    31  F   -0.502928
    32  F   -0.497944
    33  O   -0.634316
    34  O   -0.676254
    35  C    0.683153
    36  C   -0.503561
    37  C   -0.714953
    38  H    0.209967
    39  H    0.209780
    40  H    0.216094
    41  H    0.173477
    42  H    0.216877
 Sum of Mulliken charges =  -1.00000

 Dipole moment (field-independent basis, Debye):
    X=              3.1692    Y=              0.3835    Z=              0.0998  Tot=              3.1939
 Quadrupole moment (field-independent basis, Debye-Ang):
   XX=           -229.5732   YY=           -174.1245   ZZ=           -155.5275
   XY=             -6.2256   XZ=             -0.7888   YZ=              0.2555

  Exact polarizability: 307.815 -11.113 218.106   1.217  -2.328 138.278
 Approx polarizability: 301.503  -5.614 257.569   1.595  -3.243 181.353

                      1                      2                      3
                      A                      A                      A
 Frequencies --     16.6769                19.9478                23.0105
 Red. masses --      3.9947                 4.2927                 3.7066
 Frc consts  --      0.0007                 0.0010                 0.0012
 IR Inten    --      0.0413                 0.6303                 0.1930

                      4                      5                      6
                      A                      A                      A
 Frequencies --     31.8040                44.4617                46.1247
 Red. masses --      2.5116                 3.1428                 4.3898
 Frc consts  --      0.0015                 0.0037                 0.0055
 IR Inten    --      0.0420                 1.4297                 1.2766

                      7                      8                      9
                      A                      A                      A
 Frequencies --     52.3390                59.9604                61.6847
 Red. masses --      6.6523                 4.7042                 3.4711
 Frc consts  --      0.0107                 0.0100                 0.0078
 IR Inten    --      0.4286                 1.3134                 1.8561

                     10                     11                     12
                      A                      A                      A
 Frequencies --     81.5910                83.8181                94.1804
 Red. masses --      4.8354                 4.9170                 7.7342
 Frc consts  --      0.0190                 0.0204                 0.0404
 IR Inten    --      2.9246                 2.5956                 4.2424

                     13                     14                     15
                      A                      A                      A
 Frequencies --    118.4586               122.9085               168.5647
 Red. masses --      6.1299                 7.3363                 3.7302
 Frc consts  --      0.0507                 0.0653                 0.0624
 IR Inten    --      4.4707                 7.0332                 6.8906

                     16                     17                     18
                      A                      A                      A
 Frequencies --    173.4194               187.3610               214.8535
 Red. masses --      7.9336                 5.3837                 5.0493
 Frc consts  --      0.1406                 0.1114                 0.1373
 IR Inten    --      5.7891                23.6323                 5.3349

                     19                     20                     21
                      A                      A                      A
 Frequencies --    217.2546               220.0317               241.3485
 Red. masses --      1.7379                 2.1405                 1.1455
 Frc consts  --      0.0483                 0.0611                 0.0393
 IR Inten    --      0.7158                 0.8218                 0.1710

                     22                     23                     24
                      A                      A                      A
 Frequencies --    292.8491               305.4549               328.2274
 Red. masses --      6.0447                 4.3476                11.0909
 Frc consts  --      0.3054                 0.2390                 0.7040
 IR Inten    --      4.9018                10.7521                 0.0915

                     25                     26                     27
                      A                      A                      A
 Frequencies --    334.0560               337.8775               351.9907
 Red. masses --      5.6785                18.2173                 4.7788
 Frc consts  --      0.3734                 1.2253                 0.3488
 IR Inten    --      2.4210                 0.0082                21.2665

                     28                     29                     30
                      A                      A                      A
 Frequencies --    383.2997               423.8458               439.1305
 Red. masses --      7.6588                 3.2191                 8.5684
 Frc consts  --      0.6630                 0.3407                 0.9735
 IR Inten    --     17.3310                 0.0153                 0.9660

                     31                     32                     33
                      A                      A                      A
 Frequencies --    440.8305               449.8119               496.5008
 Red. masses --      7.2831                18.8790                 4.4522
 Frc consts  --      0.8339                 2.2506                 0.6466
 IR Inten    --      0.0414                 1.0417                22.0663

                     34                     35                     36
                      A                      A                      A
 Frequencies --    520.0792               534.3901               555.6054
 Red. masses --      5.6600                 5.0297                17.9500
 Frc consts  --      0.9020                 0.8463                 3.2647
 IR Inten    --     18.1194                 0.5314                 7.5615

                     37                     38                     39
                      A                      A                      A
 Frequencies --    563.6784               582.5478               587.7101
 Red. masses --      5.4132                 1.9745                16.7832
 Frc consts  --      1.0134                 0.3948                 3.4155
 IR Inten    --     26.9801                 0.7213               102.4952

                     40                     41                     42
                      A                      A                      A
 Frequencies --    606.8210               635.0815               649.2814
 Red. masses --     18.6061                 7.1674                10.2831
 Frc consts  --      4.0367                 1.7032                 2.5541
 IR Inten    --      0.0097                 2.9150                23.5113

                     43                     44                     45
                      A                      A                      A
 Frequencies --    658.3523               681.9618               723.7704
 Red. masses --      4.7823                 9.2746                 4.0301
 Frc consts  --      1.2212                 2.5413                 1.2439
 IR Inten    --     49.0338                 0.3345                 0.5754

                     46                     47                     48
                      A                      A                      A
 Frequencies --    750.4201               769.6045               778.8583
 Red. masses --      1.1292                 3.5733                 6.6133
 Frc consts  --      0.3747                 1.2470                 2.3637
 IR Inten    --      4.2398                26.9630                19.6703

                     49                     50                     51
                      A                      A                      A
 Frequencies --    818.5802               825.2395               837.5915
 Red. masses --      1.3835                 1.3185                10.8755
 Frc consts  --      0.5462                 0.5291                 4.4954
 IR Inten    --      4.3039                27.1345               616.7776

                     52                     53                     54
                      A                      A                      A
 Frequencies --    851.6219               869.4824               880.0865
 Red. masses --      1.2439                 1.6461                 5.7226
 Frc consts  --      0.5315                 0.7332                 2.6115
 IR Inten    --      7.4880                10.6922               117.9291

                     55                     56                     57
                      A                      A                      A
 Frequencies --    888.3436               890.9543               895.6495
 Red. masses --     17.6437                 4.1593                18.7893
 Frc consts  --      8.2035                 1.9453                 8.8805
 IR Inten    --    425.1938                15.4461               330.0300

                     58                     59                     60
                      A                      A                      A
 Frequencies --    901.3966               928.4927               968.3358
 Red. masses --      1.1691                 1.7384                 1.0973
 Frc consts  --      0.5597                 0.8830                 0.6062
 IR Inten    --      6.9405                 9.1669                85.9960

                     61                     62                     63
                      A                      A                      A
 Frequencies --    994.3244              1012.8302              1020.6034
 Red. masses --      1.2771                 1.2906                 3.6874
 Frc consts  --      0.7439                 0.7800                 2.2630
 IR Inten    --      7.7085                 7.7039                44.5309

                     64                     65                     66
                      A                      A                      A
 Frequencies --   1022.2473              1050.2900              1082.8613
 Red. masses --      1.7134                 3.9933                 2.7142
 Frc consts  --      1.0549                 2.5953                 1.8752
 IR Inten    --     10.0346                11.0632                 1.7453

                     67                     68                     69
                      A                      A                      A
 Frequencies --   1107.6489              1112.7312              1126.9837
 Red. masses --      1.7792                 2.3766                 2.6574
 Frc consts  --      1.2861                 1.7337                 1.9886
 IR Inten    --      0.7535                 6.2753               165.5382

                     70                     71                     72
                      A                      A                      A
 Frequencies --   1154.2171              1166.8229              1181.8142
 Red. masses --      2.0857                 1.3929                 1.6612
 Frc consts  --      1.6371                 1.1173                 1.3670
 IR Inten    --      5.7200                 7.9686                 7.6555

                     73                     74                     75
                      A                      A                      A
 Frequencies --   1196.2789              1219.4584              1273.0106
 Red. masses --      3.9012                 1.1801                 1.1965
 Frc consts  --      3.2894                 1.0340                 1.1424
 IR Inten    --      1.3501                29.3744                 4.6193

                     76                     77                     78
                      A                      A                      A
 Frequencies --   1286.3971              1308.7633              1326.0639
 Red. masses --      1.1872                 1.7574                 1.3085
 Frc consts  --      1.1575                 1.7736                 1.3557
 IR Inten    --      0.2088               341.1854                 7.8906

                     79                     80                     81
                      A                      A                      A
 Frequencies --   1332.0940              1335.4582              1345.9077
 Red. masses --      1.3827                 1.6391                 1.8161
 Frc consts  --      1.4456                 1.7223                 1.9383
 IR Inten    --     18.5961                33.6158                19.2593

                     82                     83                     84
                      A                      A                      A
 Frequencies --   1373.6528              1396.7533              1422.0110
 Red. masses --      2.1364                 3.7015                 1.3206
 Frc consts  --      2.3751                 4.2546                 1.5734
 IR Inten    --    265.0609               250.2350                19.5995

                     85                     86                     87
                      A                      A                      A
 Frequencies --   1424.7945              1436.3551              1467.7384
 Red. masses --      1.3331                 1.6341                 3.3193
 Frc consts  --      1.5945                 1.9864                 4.2131
 IR Inten    --     13.4914                 4.0603                 8.2917

                     88                     89                     90
                      A                      A                      A
 Frequencies --   1472.6811              1491.1884              1511.4818
 Red. masses --      3.7322                 1.2217                 1.0701
 Frc consts  --      4.7691                 1.6006                 1.4404
 IR Inten    --    369.6665                23.1735                 8.3933

                     91                     92                     93
                      A                      A                      A
 Frequencies --   1512.0363              1523.8751              1524.3900
 Red. masses --      1.0398                 1.1004                 1.0427
 Frc consts  --      1.4006                 1.5056                 1.4275
 IR Inten    --      5.0784                54.9801                 9.1734

                     94                     95                     96
                      A                      A                      A
 Frequencies --   1528.2925              1541.3570              1561.2062
 Red. masses --      1.0679                 1.0853                 2.6732
 Frc consts  --      1.4695                 1.5191                 3.8389
 IR Inten    --      1.6271                13.4781               236.9837

                     97                     98                     99
                      A                      A                      A
 Frequencies --   1617.4187              1641.8169              1670.8022
 Red. masses --      3.0295                 2.5901                 6.1021
 Frc consts  --      4.6694                 4.1136                10.0364
 IR Inten    --    163.1954                27.4517               514.8804

                    100                    101                    102
                      A                      A                      A
 Frequencies --   1690.5504              1718.3901              1792.7267
 Red. masses --      2.4318                 3.4596                 3.1143
 Frc consts  --      4.0947                 6.0189                 5.8972
 IR Inten    --    262.6269               845.1448               391.9361

                    103                    104                    105
                      A                      A                      A
 Frequencies --   3024.6994              3050.5679              3063.7722
 Red. masses --      1.0690                 1.0977                 1.0363
 Frc consts  --      5.7622                 6.0184                 5.7314
 IR Inten    --     80.4992               877.6019                55.6736

                    106                    107                    108
                      A                      A                      A
 Frequencies --   3067.0403              3075.6720              3076.8595
 Red. masses --      1.0447                 1.0874                 1.0632
 Frc consts  --      5.7900                 6.0605                 5.9301
 IR Inten    --     69.9040                66.4182                 4.8377

                    109                    110                    111
                      A                      A                      A
 Frequencies --   3083.7616              3108.6820              3114.8065
 Red. masses --      1.0617                 1.1013                 1.1022
 Frc consts  --      5.9487                 6.2705                 6.3005
 IR Inten    --     21.4746                15.1908                 0.3165

                    112                    113                    114
                      A                      A                      A
 Frequencies --   3138.2315              3138.7651              3139.6276
 Red. masses --      1.1038                 1.0957                 1.1008
 Frc consts  --      6.4047                 6.3602                 6.3929
 IR Inten    --     65.5451                44.1178                36.2201

                    115                    116                    117
                      A                      A                      A
 Frequencies --   3161.4318              3177.7756              3223.4192
 Red. masses --      1.1022                 1.0917                 1.0920
 Frc consts  --      6.4907                 6.4953                 6.6848
 IR Inten    --     36.9664              1778.4600                49.4541

                    118                    119                    120
                      A                      A                      A
 Frequencies --   3247.3754              3251.6658              3298.1728
 Red. masses --      1.0912                 1.0935                 1.0921
 Frc consts  --      6.7796                 6.8122                 6.9994
 IR Inten    --      1.2344                 1.2824                 9.8068

 - Thermochemistry -
 -------------------
 Temperature   298.150 Kelvin.  Pressure   1.00000 Atm.
 Atom     1 has atomic number  6 and mass  12.00000

 Molecular mass:   377.09583 amu.
 Principal axes and moments of inertia in atomic units:
                           1         2         3
     Eigenvalues --  5111.17475********************
           X            0.99999  -0.00429  -0.00024
           Y            0.00429   0.99999  -0.00013
           Z            0.00024   0.00013   1.00000
 This molecule is an asymmetric top.
 Rotational symmetry number  1.
 Warning -- assumption of classical behavior for rotation
           may cause significant error
 Rotational temperatures (Kelvin)      0.01695     0.00393     0.00328
 Rotational constants (GHZ):           0.35310     0.08190     0.06843
 Zero-point vibrational energy     839995.4 (Joules/Mol)
                                  200.76371 (Kcal/Mol)
 Warning -- explicit consideration of  40 degrees of freedom as
           vibrations may cause significant error
 Vibrational temperatures:     23.99    28.70    33.11    45.76    63.97
          (Kelvin)             66.36    75.30    86.27    88.75   117.39
                              120.60   135.50   170.44   176.84   242.53
                              249.51   269.57   309.13   312.58   316.58
                              347.25   421.34   439.48   472.25   480.63
                              486.13   506.44   551.48   609.82   631.81
                              634.26   647.18   714.35   748.28   768.87
                              799.39   811.01   838.16   845.58   873.08
                              913.74   934.17   947.22   981.19  1041.34
                             1079.69  1107.29  1120.60  1177.75  1187.33
                             1205.11  1225.29  1250.99  1266.25  1278.13
                             1281.88  1288.64  1296.91  1335.89  1393.22
                             1430.61  1457.23  1468.42  1470.78  1511.13
                             1557.99  1593.66  1600.97  1621.48  1660.66
                             1678.80  1700.36  1721.18  1754.53  1831.58
                             1850.84  1883.02  1907.91  1916.58  1921.42
                             1936.46  1976.38  2009.61  2045.95  2049.96
                             2066.59  2111.75  2118.86  2145.48  2174.68
                             2175.48  2192.51  2193.25  2198.87  2217.67
                             2246.22  2327.10  2362.21  2403.91  2432.32
                             2472.38  2579.33  4351.86  4389.08  4408.08
                             4412.78  4425.20  4426.91  4436.84  4472.69
                             4481.51  4515.21  4515.98  4517.22  4548.59
                             4572.10  4637.78  4672.24  4678.42  4745.33

 Zero-point correction=                           0.319937 (Hartree/Particle)
 Thermal correction to Energy=                    0.345450
 Thermal correction to Enthalpy=                  0.346394
 Thermal correction to Gibbs Free Energy=         0.259186
 Sum of electronic and zero-point Energies=          -1738.019509
 Sum of electronic and thermal Energies=             -1737.993997
 Sum of electronic and thermal Enthalpies=           -1737.993053
 Sum of electronic and thermal Free Energies=        -1738.080261

                     E (Thermal)             CV                S
                      KCal/Mol        Cal/Mol-Kelvin    Cal/Mol-Kelvin
 Total                  216.773             91.527            183.545
 Electronic               0.000              0.000              0.000
 Translational            0.889              2.981             43.675
 Rotational               0.889              2.981             36.339
 Vibrational            214.995             85.566            103.532
 Vibration     1          0.593              1.986              6.995
 Vibration     2          0.593              1.986              6.639
 Vibration     3          0.593              1.985              6.356
 Vibration     4          0.594              1.983              5.714
 Vibration     5          0.595              1.980              5.050
 Vibration     6          0.595              1.979              4.977
 Vibration     7          0.596              1.977              4.727
 Vibration     8          0.597              1.973              4.459
 Vibration     9          0.597              1.973              4.403
 Vibration    10          0.600              1.962              3.852
 Vibration    11          0.601              1.960              3.799
 Vibration    12          0.603              1.953              3.571
 Vibration    13          0.609              1.934              3.125
 Vibration    14          0.610              1.930              3.054
 Vibration    15          0.625              1.881              2.451
 Vibration    16          0.627              1.875              2.398
 Vibration    17          0.632              1.857              2.254
 Vibration    18          0.645              1.818              2.002
 Vibration    19          0.646              1.815              1.982
 Vibration    20          0.647              1.811              1.959
 Vibration    21          0.658              1.777              1.793
 Vibration    22          0.688              1.687              1.457
 Vibration    23          0.696              1.663              1.387
 Vibration    24          0.711              1.619              1.269
 Vibration    25          0.716              1.607              1.240
 Vibration    26          0.718              1.600              1.222
 Vibration    27          0.729              1.571              1.157
 Vibration    28          0.752              1.506              1.026
 Vibration    29          0.786              1.418              0.879
 Vibration    30          0.799              1.385              0.829
 Vibration    31          0.801              1.381              0.824
 Vibration    32          0.809              1.361              0.796
 Vibration    33          0.852              1.258              0.667
 Vibration    34          0.875              1.206              0.610
 Vibration    35          0.889              1.174              0.577
 Vibration    36          0.911              1.127              0.533
 Vibration    37          0.919              1.110              0.517
 Vibration    38          0.939              1.069              0.481
 Vibration    39          0.945              1.058              0.471
 Vibration    40          0.966              1.017              0.438

 Optimization completed.
    -- Stationary point found.

 1\1\GINC-R3739\Freq\RM062X\Gen\C13H18F5N2O3S1(1-)\ROOT\24-Feb-2019\0\\
 # M062X/Gen 6D SCF=Tight INT(grid=ultrafine) Freq=Noraman maxdisk=3221
 225472 geom=check guess=read IOP(2/17=4)\\4SF5_EtO.M062X_6-31pGd_opt\\
 -1,1\C,-2.151296941,2.3095142078,-0.0573528405\C,-0.7953929468,1.65672
 21286,0.2006703446\C,0.3548580319,2.5558104354,-0.2394818505\N,1.61546
 17928,1.8883593001,-0.0082548755\C,2.7801577031,2.5582794943,-0.163711
 4767\O,2.8427061826,3.7557736752,-0.4530208579\N,3.8939805714,1.750570
 9156,0.0458980546\C,5.2163114766,2.1155412829,-0.0330097143\C,5.677687

 Normal termination of Gaussian 09 at Sun Feb 24 13:19:48 2019.
