 Gaussian 09, Revision E.01,

 ----------------------------------------------------------------------
 # M062X/Gen 6D SCF=Tight INT(grid=ultrafine) OPT=calcfc IOP(2/17=4) ma
 xdisk=2147483648
 ----------------------------------------------------------------------

 ----------------------------
 4Ketone_a1.M062X_6-31pGd_opt
 ----------------------------
 Symbolic Z-matrix:
 Charge = -1 Multiplicity = 1

 SCF Done:  E(RM062X) =  -726.032077724     A.U. after   16 cycles
 SCF Done:  E(RM062X) =  -726.055756131     A.U. after   16 cycles
 SCF Done:  E(RM062X) =  -726.057137631     A.U. after   15 cycles
 SCF Done:  E(RM062X) =  -726.057657625     A.U. after   15 cycles
 SCF Done:  E(RM062X) =  -726.048482764     A.U. after   17 cycles
 SCF Done:  E(RM062X) =  -726.057786616     A.U. after   12 cycles
 SCF Done:  E(RM062X) =  -726.058384849     A.U. after   16 cycles
 SCF Done:  E(RM062X) =  -726.040351291     A.U. after   17 cycles
 SCF Done:  E(RM062X) =  -726.058436154     A.U. after   11 cycles
 SCF Done:  E(RM062X) =  -726.059182265     A.U. after   14 cycles
 SCF Done:  E(RM062X) =  -726.061330627     A.U. after   14 cycles
 SCF Done:  E(RM062X) =  -726.061336022     A.U. after   12 cycles
 SCF Done:  E(RM062X) =  -726.061336854     A.U. after   11 cycles
 SCF Done:  E(RM062X) =  -726.061337019     A.U. after   10 cycles
 SCF Done:  E(RM062X) =  -726.061337098     A.U. after   10 cycles
 SCF Done:  E(RM062X) =  -726.061337295     A.U. after   11 cycles
 SCF Done:  E(RM062X) =  -726.061337403     A.U. after   11 cycles
 SCF Done:  E(RM062X) =  -726.061337430     A.U. after    8 cycles
 Optimization completed.
    -- Stationary point found.
 Normal termination of Gaussian 09 at Mon Feb  4 12:21:51 2019.
 Gaussian 09:  ES64L-G09RevE.01 30-Nov-2015

 ----------------------------------------------------------------------
 # M062X/Gen 6D SCF=Tight INT(grid=ultrafine) OPT IOP(2/17=4) Freq=Nora
 man maxdisk=2147483648 geom=check guess=read IOP(2/17=4)
 ----------------------------------------------------------------------

 ----------------------------
 4Ketone_a1.M062X_6-31pGd_opt
 ----------------------------
 Structure from the checkpoint file:  "4Ketone_a1.M062X_6-31pGd_opt.chk"
 Charge = -1 Multiplicity = 1

 SCF Done:  E(RM062X) =  -726.061337430     A.U. after    1 cycles
 Optimization completed.
    -- Stationary point found.
 Normal termination of Gaussian 09 at Mon Feb  4 12:22:33 2019.

 ----------------------------------------------------------------------
 #N Geom=AllCheck Guess=TCheck SCRF=Check Test GenChk RM062X/ChkBas Fre
 q
 ----------------------------------------------------------------------

 Structure from the checkpoint file:  "4Ketone_a1.M062X_6-31pGd_opt.chk"
 ----------------------------
 4Ketone_a1.M062X_6-31pGd_opt
 ----------------------------
 Charge = -1 Multiplicity = 1

                         Standard orientation:
 ---------------------------------------------------------------------
 Center     Atomic      Atomic             Coordinates (Angstroms)
 Number     Number       Type             X           Y           Z
 ---------------------------------------------------------------------
      1          6           0       -6.781596   -0.449636    0.023366
      2          6           0       -5.520856    0.288202   -0.423733
      3          6           0       -4.286212   -0.159680    0.356461
      4          7           0       -3.101727    0.550180   -0.056489
      5          6           0       -1.836924   -0.066507    0.020633
      6          8           0       -1.780184   -1.307298    0.060101
      7          7           0       -0.851709    0.863621    0.022649
      8          6           0        0.454419    0.512110    0.014697
      9          6           0        1.015955   -0.804171   -0.023610
     10          6           0        1.397335    1.590166    0.041226
     11          6           0        2.756777    1.385554    0.030909
     12          6           0        3.299550    0.082096   -0.008838
     13          6           0        2.386906   -0.990591   -0.035581
     14          1           0       -7.662708   -0.128677   -0.542861
     15          1           0       -6.983903   -0.273399    1.086666
     16          1           0       -6.668062   -1.531157   -0.115033
     17          1           0       -5.661585    1.370980   -0.296963
     18          1           0       -5.334576    0.120657   -1.491079
     19          1           0       -4.088824   -1.221191    0.179781
     20          1           0       -4.482325   -0.045968    1.439487
     21          1           0       -3.053953    1.538943    0.155525
     22          1           0        0.345417   -1.652374   -0.041707
     23          1           0        0.985157    2.595632    0.068627
     24          1           0        3.445081    2.227033    0.051646
     25          6           0        4.750396   -0.103549   -0.018152
     26          1           0        2.759946   -2.013081   -0.066326
     27          8           0        5.547810    0.832517    0.008555
     28          6           0        5.300862   -1.526580   -0.063437
     29          1           0        4.964456   -2.105065    0.803568
     30          1           0        4.958156   -2.051240   -0.961672
     31          1           0        6.391105   -1.473932   -0.065667
 ---------------------------------------------------------------------

 SCF Done:  E(RM062X) =  -726.061337430     A.U. after    1 cycles

 The electronic state is 1-A.
 Alpha  occ. eigenvalues --  -19.50522 -19.45466 -14.63209 -14.57446 -10.51482
 Alpha  occ. eigenvalues --  -10.51235 -10.46031 -10.45645 -10.45164 -10.44999
 Alpha  occ. eigenvalues --  -10.44134 -10.42993 -10.42304 -10.41485 -10.40751
 Alpha  occ. eigenvalues --  -10.40192  -1.03089  -1.00542  -0.88529  -0.85738
 Alpha  occ. eigenvalues --   -0.80755  -0.77883  -0.73575  -0.70557  -0.69197
 Alpha  occ. eigenvalues --   -0.65935  -0.59046  -0.56737  -0.55201  -0.51212
 Alpha  occ. eigenvalues --   -0.49764  -0.46972  -0.44091  -0.43274  -0.41910
 Alpha  occ. eigenvalues --   -0.40045  -0.39983  -0.39303  -0.38219  -0.37386
 Alpha  occ. eigenvalues --   -0.35773  -0.35468  -0.34787  -0.34372  -0.33911
 Alpha  occ. eigenvalues --   -0.32543  -0.32044  -0.30963  -0.30548  -0.29357
 Alpha  occ. eigenvalues --   -0.28558  -0.26108  -0.21416  -0.20935  -0.19777
 Alpha  occ. eigenvalues --   -0.17730  -0.17335  -0.15551  -0.09706
 Alpha virt. eigenvalues --    0.09978   0.10744   0.10766   0.11524   0.12848
 Alpha virt. eigenvalues --    0.13327   0.13704   0.14093   0.14796   0.15507
 Alpha virt. eigenvalues --    0.15699   0.15974   0.16216   0.16445   0.16894

 Mulliken charges:
               1
     1  C   -0.738045
     2  C   -0.226504
     3  C   -0.255897
     4  N   -0.528552
     5  C    0.622878
     6  O   -0.657549
     7  N   -0.481262
     8  C   -0.238236
     9  C    0.044619
    10  C   -0.880052
    11  C    0.166906
    12  C    0.470524
    13  C   -0.826024
    14  H    0.190643
    15  H    0.199414
    16  H    0.206702
    17  H    0.189816
    18  H    0.217434
    19  H    0.250845
    20  H    0.171457
    21  H    0.393374
    22  H    0.249901
    23  H    0.183446
    24  H    0.211558
    25  C    0.681731
    26  H    0.168310
    27  O   -0.513687
    28  C   -0.942891
    29  H    0.222673
    30  H    0.222803
    31  H    0.223664
 Sum of Mulliken charges =  -1.00000

 Dipole moment (field-independent basis, Debye):
    X=             -4.3771    Y=             -1.2137    Z=              0.3437  Tot=              4.5553
 Quadrupole moment (field-independent basis, Debye-Ang):
   XX=           -158.7790   YY=           -105.4860   ZZ=           -103.3256
   XY=            -16.8576   XZ=             -1.7223   YZ=              1.3253

  Exact polarizability: 338.145  -0.942 159.679  -2.291  -0.261 108.380
 Approx polarizability: 326.514   4.544 209.630  -1.524   0.311 138.901

                      1                      2                      3
                      A                      A                      A
 Frequencies --     14.9660                37.8740                42.6683
 Red. masses --      3.4018                 4.3892                 3.7024
 Frc consts  --      0.0004                 0.0037                 0.0040
 IR Inten    --      1.1250                 2.4333                 5.1225

                      4                      5                      6
                      A                      A                      A
 Frequencies --     72.2350                72.9619                85.4890
 Red. masses --      5.0301                 2.4593                 3.8364
 Frc consts  --      0.0155                 0.0077                 0.0165
 IR Inten    --      1.4404                 3.2430                 1.5990

                      7                      8                      9
                      A                      A                      A
 Frequencies --    123.2313               153.2340               160.6060
 Red. masses --      3.7665                 4.4169                 1.1214
 Frc consts  --      0.0337                 0.0611                 0.0170
 IR Inten    --      6.2995                 4.4020                 0.7980

                     10                     11                     12
                      A                      A                      A
 Frequencies --    199.4623               222.5276               236.0112
 Red. masses --      3.6006                 6.0108                 1.1232
 Frc consts  --      0.0844                 0.1754                 0.0369
 IR Inten    --      3.2202                 0.0050                 0.2436

                     13                     14                     15
                      A                      A                      A
 Frequencies --    255.1315               284.0038               341.8669
 Red. masses --      3.1958                 5.7547                 3.7808
 Frc consts  --      0.1226                 0.2735                 0.2603
 IR Inten    --      2.7796                 2.0444                 5.8223

                     16                     17                     18
                      A                      A                      A
 Frequencies --    358.5559               403.8562               432.9744
 Red. masses --      5.2775                 5.7918                 3.1803
 Frc consts  --      0.3998                 0.5566                 0.3513
 IR Inten    --     17.6155                17.6210                 0.0502

                     19                     20                     21
                      A                      A                      A
 Frequencies --    455.1432               513.9550               522.2652
 Red. masses --      3.3701                 2.8131                 3.8394
 Frc consts  --      0.4113                 0.4378                 0.6170
 IR Inten    --      5.0124                 4.7843                 3.7833

                     22                     23                     24
                      A                      A                      A
 Frequencies --    589.0085               601.0476               623.8863
 Red. masses --      2.4718                 2.3347                 2.0669
 Frc consts  --      0.5053                 0.4969                 0.4740
 IR Inten    --    131.2244                14.6918                50.9003

                     25                     26                     27
                      A                      A                      A
 Frequencies --    638.9402               728.9598               734.7812
 Red. masses --      5.6449                 3.7944                 3.8174
 Frc consts  --      1.3578                 1.1880                 1.2143
 IR Inten    --      9.6184                 7.6550                 2.0341

                     28                     29                     30
                      A                      A                      A
 Frequencies --    753.0802               782.3574               801.2882
 Red. masses --      1.2277                 2.9851                 7.8946
 Frc consts  --      0.4102                 1.0765                 2.9865
 IR Inten    --      3.0378                19.7379                20.8987

                     31                     32                     33
                      A                      A                      A
 Frequencies --    846.4344               861.1682               871.4994
 Red. masses --      1.2989                 5.7159                 1.8452
 Frc consts  --      0.5483                 2.4975                 0.8257
 IR Inten    --      1.3723                34.9796                63.1275

                     34                     35                     36
                      A                      A                      A
 Frequencies --    892.6759               921.8713               965.6222
 Red. masses --      1.2828                 1.6727                 2.0875
 Frc consts  --      0.6023                 0.8376                 1.1468
 IR Inten    --     23.1903                 1.0344                91.1166

                     37                     38                     39
                      A                      A                      A
 Frequencies --    990.5016              1004.5521              1008.6594
 Red. masses --      1.2655                 1.3060                 3.1028
 Frc consts  --      0.7315                 0.7765                 1.8599
 IR Inten    --      0.3021                 0.7126               204.2095

                     40                     41                     42
                      A                      A                      A
 Frequencies --   1015.2748              1042.7189              1070.3268
 Red. masses --      3.7293                 1.8214                 2.6000
 Frc consts  --      2.2649                 1.1668                 1.7549
 IR Inten    --     10.2891                 1.1736                15.9774

                     43                     44                     45
                      A                      A                      A
 Frequencies --   1098.4263              1142.4246              1143.8374
 Red. masses --      2.2939                 1.3680                 1.8300
 Frc consts  --      1.6307                 1.0519                 1.4106
 IR Inten    --     32.7463                10.8175                74.8480

                     46                     47                     48
                      A                      A                      A
 Frequencies --   1159.9573              1188.8132              1205.3995
 Red. masses --      1.7586                 1.6865                 1.7352
 Frc consts  --      1.3941                 1.4043                 1.4855
 IR Inten    --     63.6689               359.3209                73.9668

                     49                     50                     51
                      A                      A                      A
 Frequencies --   1243.9872              1276.1248              1316.0167
 Red. masses --      2.1689                 1.4172                 1.2802
 Frc consts  --      1.9775                 1.3597                 1.3063
 IR Inten    --    711.0931               486.9351               137.2957

                     52                     53                     54
                      A                      A                      A
 Frequencies --   1319.6762              1333.1335              1338.7888
 Red. masses --      1.4761                 2.2350                 1.3196
 Frc consts  --      1.5146                 2.3403                 1.3935
 IR Inten    --      9.1417               169.8023                36.8423

                     55                     56                     57
                      A                      A                      A
 Frequencies --   1349.0998              1399.5436              1408.7931
 Red. masses --      3.3275                 1.5674                 1.8549
 Frc consts  --      3.5683                 1.8089                 2.1690
 IR Inten    --    141.6306               168.6624               414.6269

                     58                     59                     60
                      A                      A                      A
 Frequencies --   1425.5470              1440.1745              1497.7761
 Red. masses --      1.3122                 2.8007                 1.2862
 Frc consts  --      1.5711                 3.4226                 1.7001
 IR Inten    --     27.4147               692.7281               361.8222

                     61                     62                     63
                      A                      A                      A
 Frequencies --   1499.0205              1504.4777              1507.0320
 Red. masses --      2.1504                 1.0488                 2.1493
 Frc consts  --      2.8470                 1.3987                 2.8760
 IR Inten    --    591.7404                 8.5154               266.5733

                     64                     65                     66
                      A                      A                      A
 Frequencies --   1511.4284              1522.6341              1522.9678
 Red. masses --      1.0882                 1.0774                 1.0523
 Frc consts  --      1.4647                 1.4716                 1.4381
 IR Inten    --     29.7532                16.6454                15.3520

                     67                     68                     69
                      A                      A                      A
 Frequencies --   1533.0928              1574.0430              1584.5677
 Red. masses --      1.0823                 3.7089                 6.1424
 Frc consts  --      1.4987                 5.4141                 9.0868
 IR Inten    --      6.5030               548.6632               234.7777

                     70                     71                     72
                      A                      A                      A
 Frequencies --   1642.8351              1716.6385              1755.1294
 Red. masses --      6.3708                 7.7147                10.2615
 Frc consts  --     10.1305                13.3945                18.6243
 IR Inten    --    940.4184               192.6697               292.4958

                     73                     74                     75
                      A                      A                      A
 Frequencies --   2965.2598              3053.9306              3064.0669
 Red. masses --      1.0736                 1.0662                 1.0357
 Frc consts  --      5.5620                 5.8588                 5.7288
 IR Inten    --    143.6271                38.2819                53.0082

                     76                     77                     78
                      A                      A                      A
 Frequencies --   3080.7962              3102.8808              3131.8227
 Red. masses --      1.0362                 1.0957                 1.0988
 Frc consts  --      5.7943                 6.2155                 6.3500
 IR Inten    --     10.1508                12.2084                41.3145

                     79                     80                     81
                      A                      A                      A
 Frequencies --   3135.7743              3142.0625              3148.7551
 Red. masses --      1.1013                 1.0915                 1.1003
 Frc consts  --      6.3804                 6.3488                 6.4277
 IR Inten    --     56.3158                32.7411                13.4010

                     82                     83                     84
                      A                      A                      A
 Frequencies --   3184.1118              3194.5932              3207.1567
 Red. masses --      1.1026                 1.0887                 1.0866
 Frc consts  --      6.5866                 6.5463                 6.5849
 IR Inten    --     33.2658                27.8678                 6.5624

                     85                     86                     87
                      A                      A                      A
 Frequencies --   3225.4636              3284.6559              3629.8189
 Red. masses --      1.0947                 1.0916                 1.0760
 Frc consts  --      6.7100                 6.9392                 8.3529
 IR Inten    --     22.3357                 2.3895                11.8637

 - Thermochemistry -
 -------------------
 Temperature   298.150 Kelvin.  Pressure   1.00000 Atm.
 Atom     1 has atomic number  6 and mass  12.00000

 Molecular mass:   219.11335 amu.
 Principal axes and moments of inertia in atomic units:
                           1         2         3
     Eigenvalues --   750.47180********************
           X            0.99998  -0.00676  -0.00059
           Y            0.00676   0.99998   0.00104
           Z            0.00058  -0.00104   1.00000
 This molecule is an asymmetric top.
 Rotational symmetry number  1.
 Warning -- assumption of classical behavior for rotation
           may cause significant error
 Rotational temperatures (Kelvin)      0.11541     0.00762     0.00719
 Rotational constants (GHZ):           2.40481     0.15868     0.14987
 Zero-point vibrational energy     672577.7 (Joules/Mol)
                                  160.74992 (Kcal/Mol)
 Warning -- explicit consideration of  23 degrees of freedom as
           vibrations may cause significant error
 Vibrational temperatures:     21.53    54.49    61.39   103.93   104.98
          (Kelvin)            123.00   177.30   220.47   231.08   286.98
                              320.17   339.57   367.08   408.62   491.87
                              515.88   581.06   622.95   654.85   739.47
                              751.42   847.45   864.77   897.63   919.29
                             1048.81  1057.18  1083.51  1125.64  1152.87
                             1217.83  1239.03  1253.89  1284.36  1326.37
                             1389.31  1425.11  1445.32  1451.23  1460.75
                             1500.24  1539.96  1580.39  1643.69  1645.72
                             1668.92  1710.43  1734.30  1789.82  1836.06
                             1893.45  1898.72  1918.08  1926.22  1941.05
                             2013.63  2026.94  2051.04  2072.09  2154.96
                             2156.75  2164.61  2168.28  2174.61  2190.73
                             2191.21  2205.78  2264.69  2279.84  2363.67
                             2469.86  2525.24  4266.34  4393.92  4408.50
                             4432.57  4464.35  4505.99  4511.67  4520.72
                             4530.35  4581.22  4596.30  4614.38  4640.72
                             4725.88  5222.49

 Zero-point correction=                           0.256171 (Hartree/Particle)
 Thermal correction to Energy=                    0.272304
 Thermal correction to Enthalpy=                  0.273248
 Thermal correction to Gibbs Free Energy=         0.209983
 Sum of electronic and zero-point Energies=           -725.805166
 Sum of electronic and thermal Energies=              -725.789033
 Sum of electronic and thermal Enthalpies=            -725.788089
 Sum of electronic and thermal Free Energies=         -725.851355

                     E (Thermal)             CV                S
                      KCal/Mol        Cal/Mol-Kelvin    Cal/Mol-Kelvin
 Total                  170.873             58.625            133.154
 Electronic               0.000              0.000              0.000
 Translational            0.889              2.981             42.056
 Rotational               0.889              2.981             32.997
 Vibrational            169.096             52.664             58.101
 Vibration     1          0.593              1.986              7.210
 Vibration     2          0.594              1.982              5.367
 Vibration     3          0.595              1.980              5.131
 Vibration     4          0.598              1.967              4.092
 Vibration     5          0.599              1.967              4.072
 Vibration     6          0.601              1.959              3.761
 Vibration     7          0.610              1.930              3.049
 Vibration     8          0.619              1.899              2.632
 Vibration     9          0.622              1.891              2.543
 Vibration    10          0.638              1.841              2.138
 Vibration    11          0.648              1.807              1.938
 Vibration    12          0.655              1.786              1.833
 Vibration    13          0.666              1.754              1.695
 Vibration    14          0.682              1.703              1.509
 Vibration    15          0.721              1.592              1.203
 Vibration    16          0.733              1.558              1.128
 Vibration    17          0.769              1.462              0.949
 Vibration    18          0.794              1.398              0.849
 Vibration    19          0.813              1.350              0.780
 Vibration    20          0.869              1.219              0.624
 Vibration    21          0.877              1.201              0.605
 Vibration    22          0.946              1.055              0.469
 Vibration    23          0.959              1.030              0.448

 Optimization completed.
    -- Stationary point found.
 Normal termination of Gaussian 09 at Mon Feb  4 12:58:38 2019.
