 Gaussian 09, Revision E.01,

 ----------------------------------------------------------------------
 # M062X/Gen 6D SCF=Tight INT(grid=ultrafine) OPT IOP(2/17=4) SCRF=(SMD
 ,Solvent=n-Pentadecane) maxdisk=2684354560
 ----------------------------------------------------------------------

 ----------------------------------------
 NM3_C2_EtO.M062X_6-31pGd_opt_Pentadecane
 ----------------------------------------
 Symbolic Z-matrix:
 Charge = -1 Multiplicity = 1

 SCF Done:  E(RM062X) =  -1638.32547255     A.U. after   15 cycles
 SCF Done:  E(RM062X) =  -1638.36394865     A.U. after   15 cycles
 SCF Done:  E(RM062X) =  -1638.37195281     A.U. after   13 cycles
 SCF Done:  E(RM062X) =  -1638.38167100     A.U. after   15 cycles
 SCF Done:  E(RM062X) =  -1638.38192205     A.U. after   15 cycles
 SCF Done:  E(RM062X) =  -1638.38192414     A.U. after   15 cycles
 SCF Done:  E(RM062X) =  -1638.38291040     A.U. after   11 cycles
 SCF Done:  E(RM062X) =  -1638.38408085     A.U. after   12 cycles
 SCF Done:  E(RM062X) =  -1638.38416435     A.U. after   11 cycles
 SCF Done:  E(RM062X) =  -1638.38417046     A.U. after   11 cycles
 SCF Done:  E(RM062X) =  -1638.38419756     A.U. after   10 cycles
 SCF Done:  E(RM062X) =  -1638.38419829     A.U. after    9 cycles
 SCF Done:  E(RM062X) =  -1638.38419863     A.U. after    9 cycles
 SCF Done:  E(RM062X) =  -1638.38419873     A.U. after    8 cycles
 SCF Done:  E(RM062X) =  -1638.38419877     A.U. after    8 cycles
 SCF Done:  E(RM062X) =  -1638.38419886     A.U. after    8 cycles
 Optimization completed.
    -- Stationary point found.
 Normal termination of Gaussian 09 at Tue Feb 19 13:26:40 2019.
 Gaussian 09:  ES64L-G09RevE.01 30-Nov-2015

 ----------------------------------------------------------------------
 # M062X/Gen 6D SCF=Tight INT(grid=ultrafine) OPT IOP(2/17=4) SCRF=(SMD
 ,Solvent=n-Pentadecane) Freq=Noraman maxdisk=2684354560 geom=check gue
 ss=read IOP(2/17=4)
 ----------------------------------------------------------------------

 ----------------------------------------
 NM3_C2_EtO.M062X_6-31pGd_opt_Pentadecane
 ----------------------------------------
 Structure from the checkpoint file:  "NM3_C2_EtO.M062X_6-31pGd_opt_Pentadecane.chk"
 Charge = -1 Multiplicity = 1

 SCF Done:  E(RM062X) =  -1638.38419886     A.U. after    1 cycles
 SCF Done:  E(RM062X) =  -1638.38419875     A.U. after    8 cycles
 SCF Done:  E(RM062X) =  -1638.38419887     A.U. after    8 cycles
 Optimization completed.
    -- Stationary point found.
 Normal termination of Gaussian 09 at Tue Feb 19 13:34:12 2019.

 ----------------------------------------------------------------------
 #N Geom=AllCheck Guess=TCheck SCRF=Check Test GenChk RM062X/ChkBas Fre
 q
 ----------------------------------------------------------------------

 Structure from the checkpoint file:  "NM3_C2_EtO.M062X_6-31pGd_opt_Pentadecane.chk"
 ----------------------------------------
 NM3_C2_EtO.M062X_6-31pGd_opt_Pentadecane
 ----------------------------------------
 Charge = -1 Multiplicity = 1

                         Standard orientation:
 ---------------------------------------------------------------------
 Center     Atomic      Atomic             Coordinates (Angstroms)
 Number     Number       Type             X           Y           Z
 ---------------------------------------------------------------------
      1          6           0       -3.732459   -0.631599   -0.037351
      2          6           0       -3.021174   -1.823905   -0.070282
      3          6           0       -1.635532   -1.889509   -0.039792
      4          6           0       -0.897100   -0.691293    0.023884
      5          6           0       -1.594877    0.533093    0.056555
      6          6           0       -2.981386    0.541830    0.027408
      7          1           0       -4.815224   -0.619289   -0.060695
      8          7           0        0.480167   -0.622556    0.052056
      9          6           0        1.375139   -1.683127    0.055510
     10          7           0        2.667791   -1.286356    0.060624
     11          8           0        1.033508   -2.870410    0.056837
     12          6           0        3.733017   -2.267403    0.062121
     13          6           0        5.088786   -1.571474    0.040271
     14          6           0        6.235482   -2.578234    0.051559
     15          1           0       -1.120199   -2.839545   -0.064683
     16          1           0       -1.028234    1.460985    0.104309
     17          1           0        0.871572    0.345597    0.076179
     18          1           0        2.914045   -0.281475    0.029672
     19          1           0        3.635042   -2.929591   -0.809648
     20          1           0        3.651831   -2.907368    0.951997
     21          1           0        5.163744   -0.901348    0.905012
     22          1           0        5.151621   -0.933855   -0.849629
     23          1           0        6.200353   -3.207081    0.949065
     24          1           0        7.207027   -2.073610    0.035234
     25          1           0        6.188256   -3.240884   -0.820727
     26         17           0       -3.923004   -3.327034   -0.158405
     27          6           0       -3.675090    1.872972    0.063081
     28          9           0       -3.340374    2.594824    1.151153
     29          9           0       -5.018090    1.758845    0.076548
     30          9           0       -3.366941    2.639300   -1.002973
     31          8           0        1.262136    2.018121    0.097198
     32          8           0        3.423803    1.440674   -0.046520
     33          6           0        2.494334    2.283531   -0.000652
     34          6           0        2.855610    3.773289   -0.062283
     35          6           0        4.338485    4.060187   -0.254272
     36          1           0        2.486029    4.231065    0.863944
     37          1           0        2.261008    4.216296   -0.870376
     38          1           0        4.928254    3.632999    0.562110
     39          1           0        4.528742    5.139588   -0.290365
     40          1           0        4.705155    3.615527   -1.184485
 ---------------------------------------------------------------------

 SCF Done:  E(RM062X) =  -1638.38419887     A.U. after    1 cycles

 The electronic state is 1-A.
 Alpha  occ. eigenvalues -- -102.63063 -25.26314 -25.25725 -25.25702 -19.54564
 Alpha  occ. eigenvalues --  -19.52608 -19.52375 -14.72114 -14.70364 -10.76938
 Alpha  occ. eigenvalues --  -10.61493 -10.57670 -10.57289 -10.56286 -10.53990
 Alpha  occ. eigenvalues --  -10.52325 -10.52051 -10.51374 -10.51172 -10.49364
 Alpha  occ. eigenvalues --  -10.49289 -10.47922 -10.47722  -9.77731  -7.50122
 Alpha  occ. eigenvalues --   -7.49482  -7.49467  -1.42500  -1.33356  -1.32870
 Alpha  occ. eigenvalues --   -1.10674  -1.08824  -0.99492  -0.98897  -0.96304
 Alpha  occ. eigenvalues --   -0.94621  -0.90109  -0.83834  -0.82296  -0.80033
 Alpha  occ. eigenvalues --   -0.79039  -0.76347  -0.72738  -0.68707  -0.66567
 Alpha  occ. eigenvalues --   -0.66336  -0.64734  -0.64265  -0.62758  -0.62071
 Alpha  occ. eigenvalues --   -0.58432  -0.56188  -0.53983  -0.53415  -0.53073
 Alpha  occ. eigenvalues --   -0.52581  -0.51220  -0.49953  -0.49571  -0.48818
 Alpha  occ. eigenvalues --   -0.47873  -0.47590  -0.46878  -0.46628  -0.46049
 Alpha  occ. eigenvalues --   -0.46002  -0.45328  -0.44485  -0.43549  -0.42967
 Alpha  occ. eigenvalues --   -0.42783  -0.41367  -0.40534  -0.40175  -0.39436
 Alpha  occ. eigenvalues --   -0.38604  -0.37731  -0.37249  -0.36737  -0.35867
 Alpha  occ. eigenvalues --   -0.34987  -0.34529  -0.33871  -0.33823  -0.32031
 Alpha  occ. eigenvalues --   -0.28172  -0.26618  -0.25654  -0.25019  -0.24748
 Alpha  occ. eigenvalues --   -0.24627  -0.21163
 Alpha virt. eigenvalues --    0.04687   0.05581   0.06107   0.06715   0.07014
 Alpha virt. eigenvalues --    0.07452   0.08009   0.08466   0.08658   0.08914
 Alpha virt. eigenvalues --    0.09521   0.09663   0.10067   0.10498   0.11018

 Mulliken charges:
               1
     1  C   -0.831578
     2  C    0.261458
     3  C   -0.218091
     4  C    0.069858
     5  C   -0.629652
     6  C   -0.251533
     7  H    0.251029
     8  N   -0.672887
     9  C    0.846903
    10  N   -0.788435
    11  O   -0.624857
    12  C   -0.173033
    13  C   -0.346791
    14  C   -0.806166
    15  H    0.291421
    16  H    0.301186
    17  H    0.514177
    18  H    0.530442
    19  H    0.218409
    20  H    0.217412
    21  H    0.236153
    22  H    0.237537
    23  H    0.207762
    24  H    0.208378
    25  H    0.207828
    26  Cl   0.149164
    27  C    1.323788
    28  F   -0.280961
    29  F   -0.350041
    30  F   -0.278036
    31  O   -0.700602
    32  O   -0.645263
    33  C    0.697202
    34  C   -0.466545
    35  C   -0.760866
    36  H    0.218333
    37  H    0.218180
    38  H    0.216802
    39  H    0.187096
    40  H    0.214822
 Sum of Mulliken charges =  -1.00000

 Dipole moment (field-independent basis, Debye):
    X=             -1.5243    Y=             -0.2738    Z=             -0.1444  Tot=              1.5555
 Quadrupole moment (field-independent basis, Debye-Ang):
   XX=           -184.2948   YY=           -179.7410   ZZ=           -148.0243
   XY=             -5.7005   XZ=              0.3559   YZ=             -0.0741

  Exact polarizability: 314.336   5.044 261.798   1.117   1.893 148.073
 Approx polarizability: 291.376   3.918 266.250   1.249   2.809 174.953

                      1                      2                      3
                      A                      A                      A
 Frequencies --     19.1400                22.9926                25.2590
 Red. masses --      9.8152                 6.8440                 5.1277
 Frc consts  --      0.0021                 0.0021                 0.0019
 IR Inten    --      0.0419                 0.4045                 0.4811

                      4                      5                      6
                      A                      A                      A
 Frequencies --     36.8999                44.8923                50.2204
 Red. masses --      2.5295                 2.5035                 6.7742
 Frc consts  --      0.0020                 0.0030                 0.0101
 IR Inten    --      0.2975                 0.8511                 1.6226

                      7                      8                      9
                      A                      A                      A
 Frequencies --     58.9146                61.1998                75.6901
 Red. masses --      3.9250                 3.9482                 3.1836
 Frc consts  --      0.0080                 0.0087                 0.0107
 IR Inten    --      0.8361                 1.9819                 0.4077

                     10                     11                     12
                      A                      A                      A
 Frequencies --     81.2636                87.6888               112.0702
 Red. masses --      5.1638                 5.4050                 8.0682
 Frc consts  --      0.0201                 0.0245                 0.0597
 IR Inten    --      0.8028                 9.2380                 5.7656

                     13                     14                     15
                      A                      A                      A
 Frequencies --    126.1595               126.3728               144.7436
 Red. masses --      7.6802                 6.4264                11.8526
 Frc consts  --      0.0720                 0.0605                 0.1463
 IR Inten    --      6.8922                 3.7838                 6.0017

                     16                     17                     18
                      A                      A                      A
 Frequencies --    173.6937               177.7883               202.6152
 Red. masses --      3.1613                 4.9789                 5.7411
 Frc consts  --      0.0562                 0.0927                 0.1389
 IR Inten    --      5.6812                23.2892                 0.1454

                     19                     20                     21
                      A                      A                      A
 Frequencies --    222.6405               235.9540               243.1751
 Red. masses --      1.1393                 7.5730                 1.7867
 Frc consts  --      0.0333                 0.2484                 0.0622
 IR Inten    --      0.8867                 5.7978                 0.3393

                     22                     23                     24
                      A                      A                      A
 Frequencies --    246.4996               259.3024               296.3360
 Red. masses --      1.8690                 5.6854                 3.9575
 Frc consts  --      0.0669                 0.2252                 0.2048
 IR Inten    --      0.3031                 5.3662                12.8226

                     25                     26                     27
                      A                      A                      A
 Frequencies --    320.0559               333.8122               339.9624
 Red. masses --      9.9996                 7.3228                 5.9467
 Frc consts  --      0.6035                 0.4808                 0.4049
 IR Inten    --      3.5014                 0.0461                 7.6440

                     28                     29                     30
                      A                      A                      A
 Frequencies --    373.8919               426.4810               467.4643
 Red. masses --      7.1871                 8.3674                 6.6562
 Frc consts  --      0.5920                 0.8967                 0.8570
 IR Inten    --     23.0986                 5.4665                 7.5478

                     31                     32                     33
                      A                      A                      A
 Frequencies --    473.7253               512.9100               526.1120
 Red. masses --      4.8618                11.1894                 5.6416
 Frc consts  --      0.6428                 1.7344                 0.9200
 IR Inten    --      0.2687                 2.4869                37.8064

                     34                     35                     36
                      A                      A                      A
 Frequencies --    584.5797               585.3542               595.8683
 Red. masses --      2.1748                 4.5092                10.2653
 Frc consts  --      0.4379                 0.9103                 2.1474
 IR Inten    --      2.3067                 0.5767                 0.5184

                     37                     38                     39
                      A                      A                      A
 Frequencies --    647.8426               649.7801               660.8261
 Red. masses --      6.1322                 5.5282                 4.7501
 Frc consts  --      1.5164                 1.3752                 1.2222
 IR Inten    --     35.3531                 3.2890                33.6061

                     40                     41                     42
                      A                      A                      A
 Frequencies --    713.4955               714.1502               752.8191
 Red. masses --      4.1815                 4.5118                 1.2370
 Frc consts  --      1.2542                 1.3558                 0.4130
 IR Inten    --     35.0211                37.5310                15.6412

                     43                     44                     45
                      A                      A                      A
 Frequencies --    764.1998               781.1249               804.4088
 Red. masses --      2.2098                 6.9090                 1.4328
 Frc consts  --      0.7604                 2.4837                 0.5462
 IR Inten    --     38.0515                27.1260                 2.6930

                     46                     47                     48
                      A                      A                      A
 Frequencies --    824.2407               853.3309               864.1007
 Red. masses --      1.4583                11.3536                 1.4573
 Frc consts  --      0.5837                 4.8710                 0.6411
 IR Inten    --     10.5860                34.5901                34.2095

                     49                     50                     51
                      A                      A                      A
 Frequencies --    890.2105               902.2525               923.1938
 Red. masses --      3.9187                 1.1541                 1.7802
 Frc consts  --      1.8297                 0.5536                 0.8939
 IR Inten    --     46.3896                 4.4513                 4.9144

                     52                     53                     54
                      A                      A                      A
 Frequencies --    924.0103               935.6899               970.1119
 Red. masses --      1.5244                 1.2249                 2.4141
 Frc consts  --      0.7668                 0.6318                 1.3386
 IR Inten    --     21.0049                24.7099                52.2262

                     55                     56                     57
                      A                      A                      A
 Frequencies --    970.2409              1006.9241              1028.0231
 Red. masses --      1.5165                 5.8066                 1.6633
 Frc consts  --      0.8411                 3.4687                 1.0357
 IR Inten    --     79.8249                48.0155                 5.6446

                     58                     59                     60
                      A                      A                      A
 Frequencies --   1055.1733              1086.3065              1109.0710
 Red. masses --      4.1070                 2.6818                 1.7791
 Frc consts  --      2.6941                 1.8646                 1.2894
 IR Inten    --     43.3826                25.7494                 0.8867

                     61                     62                     63
                      A                      A                      A
 Frequencies --   1113.3453              1141.3982              1142.5484
 Red. masses --      2.3936                 1.6916                 2.0499
 Frc consts  --      1.7481                 1.2984                 1.5767
 IR Inten    --      4.9158                28.5279                39.7033

                     64                     65                     66
                      A                      A                      A
 Frequencies --   1162.3776              1182.9319              1187.8803
 Red. masses --      2.3218                 1.6062                12.7653
 Frc consts  --      1.8483                 1.3242                10.6127
 IR Inten    --     40.5580                 0.5687               316.1016

                     67                     68                     69
                      A                      A                      A
 Frequencies --   1192.9961              1212.9587              1277.5828
 Red. masses --      3.9865                 6.9038                 1.1888
 Frc consts  --      3.3428                 5.9845                 1.1433
 IR Inten    --     16.3182               295.0135                 0.0308

                     70                     71                     72
                      A                      A                      A
 Frequencies --   1287.3188              1290.3480              1304.0972
 Red. masses --      1.4819                 1.1804                 2.6406
 Frc consts  --      1.4469                 1.1579                 2.6459
 IR Inten    --     81.6361                 0.1817                84.8744

                     73                     74                     75
                      A                      A                      A
 Frequencies --   1317.1469              1328.8711              1337.4773
 Red. masses --      1.5943                 1.0818                 1.6781
 Frc consts  --      1.6296                 1.1256                 1.7687
 IR Inten    --    347.3547                 3.0313                81.1730

                     76                     77                     78
                      A                      A                      A
 Frequencies --   1354.9457              1372.0261              1396.2929
 Red. masses --      2.4440                 2.6805                 5.0323
 Frc consts  --      2.6436                 2.9730                 5.7806
 IR Inten    --    227.9595               251.2215               527.1191

                     79                     80                     81
                      A                      A                      A
 Frequencies --   1423.8006              1426.0294              1435.0945
 Red. masses --      1.3065                 1.3679                 1.5788
 Frc consts  --      1.5605                 1.6389                 1.9157
 IR Inten    --     13.0252                15.9826                 7.6815

                     82                     83                     84
                      A                      A                      A
 Frequencies --   1474.0423              1482.9553              1485.2162
 Red. masses --      2.1432                 2.8167                 1.9152
 Frc consts  --      2.7437                 3.6496                 2.4891
 IR Inten    --    323.3653               146.4131                59.3614

                     85                     86                     87
                      A                      A                      A
 Frequencies --   1505.4955              1510.0291              1519.7359
 Red. masses --      1.0706                 1.0406                 1.0403
 Frc consts  --      1.4297                 1.3979                 1.4156
 IR Inten    --      9.9705                 7.6072                 8.8466

                     88                     89                     90
                      A                      A                      A
 Frequencies --   1519.9350              1525.2947              1534.3485
 Red. masses --      1.1129                 1.0739                 3.7107
 Frc consts  --      1.5149                 1.4721                 5.1470
 IR Inten    --     70.5004                 3.8075               364.6958

                     91                     92                     93
                      A                      A                      A
 Frequencies --   1541.5862              1621.8975              1645.7566
 Red. masses --      1.1345                 2.4651                 2.7600
 Frc consts  --      1.5885                 3.8206                 4.4044
 IR Inten    --      2.7412               232.4002                19.7256

                     94                     95                     96
                      A                      A                      A
 Frequencies --   1672.4916              1686.7087              1711.4027
 Red. masses --      4.1641                 4.6253                 3.4079
 Frc consts  --      6.8628                 7.7530                 5.8809
 IR Inten    --   1122.5972                59.9788               689.9084

                     97                     98                     99
                      A                      A                      A
 Frequencies --   1781.1494              3017.9213              3045.9507
 Red. masses --      2.7826                 1.0988                 1.0579
 Frc consts  --      5.2012                 5.8966                 5.7828
 IR Inten    --    447.8721              1400.2218               104.4933

                    100                    101                    102
                      A                      A                      A
 Frequencies --   3068.9690              3071.9259              3072.4871
 Red. masses --      1.0368                 1.1051                 1.0453
 Frc consts  --      5.7534                 6.1443                 5.8141
 IR Inten    --     47.4027                32.7971                47.2392

                    103                    104                    105
                      A                      A                      A
 Frequencies --   3078.6715              3083.0062              3112.0642
 Red. masses --      1.0560                 1.0601                 1.1009
 Frc consts  --      5.8969                 5.9370                 6.2819
 IR Inten    --     26.3723                30.3959                13.2922

                    106                    107                    108
                      A                      A                      A
 Frequencies --   3117.6480              3140.5954              3141.2284
 Red. masses --      1.1035                 1.1038                 1.0979
 Frc consts  --      6.3193                 6.4148                 6.3829
 IR Inten    --      2.7937                76.7148                60.7372

                    109                    110                    111
                      A                      A                      A
 Frequencies --   3145.3156              3161.3220              3211.8530
 Red. masses --      1.1013                 1.1025                 1.0919
 Frc consts  --      6.4193                 6.4919                 6.6366
 IR Inten    --     39.6715                43.0821              1363.6162

                    112                    113                    114
                      A                      A                      A
 Frequencies --   3220.4230              3272.7155              3293.7691
 Red. masses --      1.0932                 1.0926                 1.0927
 Frc consts  --      6.6799                 6.8950                 6.9845
 IR Inten    --    287.6436                 2.5933                24.5532

 - Thermochemistry -
 -------------------
 Temperature   298.150 Kelvin.  Pressure   1.00000 Atm.
 Atom     1 has atomic number  6 and mass  12.00000

 Molecular mass:   353.08798 amu.
 Principal axes and moments of inertia in atomic units:
                           1         2         3
     Eigenvalues --  6936.20518********************
           X            0.99999   0.00472  -0.00038
           Y           -0.00472   0.99998  -0.00283
           Z            0.00036   0.00283   1.00000
 This molecule is an asymmetric top.
 Rotational symmetry number  1.
 Warning -- assumption of classical behavior for rotation
           may cause significant error
 Rotational temperatures (Kelvin)      0.01249     0.00588     0.00407
 Rotational constants (GHZ):           0.26019     0.12249     0.08481
 Zero-point vibrational energy     806669.7 (Joules/Mol)
                                  192.79867 (Kcal/Mol)
 Warning -- explicit consideration of  36 degrees of freedom as
           vibrations may cause significant error
 Vibrational temperatures:     27.54    33.08    36.34    53.09    64.59
          (Kelvin)             72.26    84.76    88.05   108.90   116.92
                              126.16   161.24   181.52   181.82   208.25
                              249.91   255.80   291.52   320.33   339.48
                              349.87   354.66   373.08   426.36   460.49
                              480.28   489.13   537.95   613.61   672.58
                              681.58   737.96   756.96   841.08   842.19
                              857.32   932.10   934.89   950.78  1026.56
                             1027.50  1083.14  1099.51  1123.86  1157.36
                             1185.90  1227.75  1243.25  1280.81  1298.14
                             1328.27  1329.44  1346.25  1395.77  1395.96
                             1448.74  1479.09  1518.16  1562.95  1595.70
                             1601.85  1642.22  1643.87  1672.40  1701.97
                             1709.09  1716.45  1745.17  1838.15  1852.16
                             1856.52  1876.30  1895.08  1911.95  1924.33
                             1949.46  1974.04  2008.95  2048.53  2051.74
                             2064.78  2120.82  2133.64  2136.89  2166.07
                             2172.59  2186.56  2186.84  2194.56  2207.58
                             2218.00  2333.55  2367.87  2406.34  2426.79
                             2462.32  2562.67  4342.11  4382.44  4415.56
                             4419.81  4420.62  4429.52  4435.75  4477.56
                             4485.59  4518.61  4519.52  4525.40  4548.43
                             4621.13  4633.46  4708.70  4738.99

 Zero-point correction=                           0.307244 (Hartree/Particle)
 Thermal correction to Energy=                    0.331811
 Thermal correction to Enthalpy=                  0.332755
 Thermal correction to Gibbs Free Energy=         0.247837
 Sum of electronic and zero-point Energies=          -1638.076955
 Sum of electronic and thermal Energies=             -1638.052388
 Sum of electronic and thermal Enthalpies=           -1638.051444
 Sum of electronic and thermal Free Energies=        -1638.136361

                     E (Thermal)             CV                S
                      KCal/Mol        Cal/Mol-Kelvin    Cal/Mol-Kelvin
 Total                  208.215             85.660            178.724
 Electronic               0.000              0.000              0.000
 Translational            0.889              2.981             43.478
 Rotational               0.889              2.981             36.029
 Vibrational            206.437             79.698             99.217
 Vibration     1          0.593              1.986              6.721
 Vibration     2          0.593              1.985              6.357
 Vibration     3          0.593              1.985              6.171
 Vibration     4          0.594              1.982              5.419
 Vibration     5          0.595              1.979              5.031
 Vibration     6          0.595              1.978              4.809
 Vibration     7          0.596              1.974              4.493
 Vibration     8          0.597              1.973              4.418
 Vibration     9          0.599              1.965              4.000
 Vibration    10          0.600              1.962              3.860
 Vibration    11          0.601              1.958              3.711
 Vibration    12          0.607              1.939              3.233
 Vibration    13          0.611              1.927              3.004
 Vibration    14          0.611              1.927              3.001
 Vibration    15          0.616              1.908              2.740
 Vibration    16          0.627              1.875              2.395
 Vibration    17          0.628              1.870              2.352
 Vibration    18          0.639              1.836              2.109
 Vibration    19          0.648              1.807              1.938
 Vibration    20          0.655              1.786              1.833
 Vibration    21          0.659              1.774              1.780
 Vibration    22          0.661              1.769              1.755
 Vibration    23          0.668              1.747              1.666
 Vibration    24          0.690              1.681              1.438
 Vibration    25          0.706              1.635              1.310
 Vibration    26          0.715              1.608              1.242
 Vibration    27          0.720              1.596              1.212
 Vibration    28          0.745              1.526              1.064
 Vibration    29          0.788              1.413              0.870
 Vibration    30          0.825              1.322              0.745
 Vibration    31          0.831              1.308              0.727
 Vibration    32          0.868              1.221              0.627
 Vibration    33          0.881              1.192              0.596
 Vibration    34          0.942              1.065              0.477
 Vibration    35          0.942              1.063              0.476
 Vibration    36          0.954              1.041              0.457

 Normal termination of Gaussian 09 at Tue Feb 19 14:26:41 2019.
