 Gaussian 09, Revision E.01,

 ----------------------------------------------------------------------
 # M062X/Gen 6D SCF=Tight INT(grid=ultrafine) OPT IOP(2/17=4) maxdisk=2
 147483648
 ----------------------------------------------------------------------

 -------------------------
 aryl_urea_Cl_CF3_a1.M062X
 -------------------------
 Symbolic Z-matrix:
 Charge = -1 Multiplicity = 1

 SCF Done:  E(RM062X) =  -1369.99652931     A.U. after   16 cycles
 SCF Done:  E(RM062X) =  -1369.99890430     A.U. after   15 cycles
 SCF Done:  E(RM062X) =  -1369.99905392     A.U. after   14 cycles
 SCF Done:  E(RM062X) =  -1370.00006197     A.U. after   14 cycles
 SCF Done:  E(RM062X) =  -1370.00012893     A.U. after   14 cycles
 SCF Done:  E(RM062X) =  -1370.00014837     A.U. after   14 cycles
 SCF Done:  E(RM062X) =  -1370.00034745     A.U. after   14 cycles
 SCF Done:  E(RM062X) =  -1370.00042513     A.U. after   12 cycles
 SCF Done:  E(RM062X) =  -1370.00050509     A.U. after   14 cycles
 SCF Done:  E(RM062X) =  -1370.00055693     A.U. after   13 cycles
 SCF Done:  E(RM062X) =  -1370.00038698     A.U. after   15 cycles
 SCF Done:  E(RM062X) =  -1370.00046406     A.U. after   16 cycles
 SCF Done:  E(RM062X) =  -1370.00061621     A.U. after   15 cycles
 SCF Done:  E(RM062X) =  -1370.00065667     A.U. after   15 cycles
 SCF Done:  E(RM062X) =  -1370.00065555     A.U. after   13 cycles
 SCF Done:  E(RM062X) =  -1370.00065847     A.U. after   12 cycles
 SCF Done:  E(RM062X) =  -1370.00065886     A.U. after   11 cycles
 SCF Done:  E(RM062X) =  -1370.00065884     A.U. after   11 cycles
 SCF Done:  E(RM062X) =  -1370.00065882     A.U. after    9 cycles
 Optimization completed.
    -- Stationary point found.
 Normal termination of Gaussian 09 at Thu Jul 12 17:12:14 2018.
 Gaussian 09:  ES64L-G09RevE.01 30-Nov-2015

 ----------------------------------------------------------------------
 # M062X/Gen 6D SCF=Tight INT(grid=ultrafine) Freq=Noraman geom=check g
 uess=read IOP(2/17=4) maxdisk=2147483648
 ----------------------------------------------------------------------

 -------------------------
 aryl_urea_Cl_CF3_a1.M062X
 -------------------------
 Structure from the checkpoint file:  "aryl_urea_Cl_CF3_a1.M062X.chk"
 Charge = -1 Multiplicity = 1

                         Standard orientation:
 ---------------------------------------------------------------------
 Center     Atomic      Atomic             Coordinates (Angstroms)
 Number     Number       Type             X           Y           Z
 ---------------------------------------------------------------------
      1          6           0        2.978843    0.431796    0.028713
      2          6           0        2.389031    1.692705   -0.002361
      3          6           0        1.023332    1.883179   -0.009140
      4          6           0        0.118435    0.781477    0.011377
      5          6           0        0.714891   -0.514716    0.043834
      6          6           0        2.097802   -0.651635    0.054194
      7          1           0        4.054414    0.305587    0.039637
      8          7           0       -1.200679    1.099570    0.005077
      9          6           0       -2.148796    0.136650    0.000261
     10          7           0       -3.439312    0.699827    0.076027
     11          8           0       -2.040129   -1.101620   -0.042339
     12          6           0       -4.586446   -0.057928   -0.359356
     13          6           0       -5.851108    0.335868    0.401355
     14          6           0       -7.072105   -0.453645   -0.067332
     15          1           0        0.601350    2.882595   -0.027620
     16          1           0        0.071419   -1.384298    0.062483
     17          1           0       -3.431516    1.689282   -0.138616
     18          1           0       -4.347965   -1.110728   -0.181848
     19          1           0       -4.768965    0.050718   -1.445244
     20          1           0       -6.035537    1.412057    0.274167
     21          1           0       -5.675137    0.173723    1.471279
     22          1           0       -7.264384   -0.283933   -1.133543
     23          1           0       -7.975083   -0.171442    0.484944
     24          1           0       -6.915089   -1.529645    0.071356
     25         17           0        3.446051    3.106565   -0.024854
     26          6           0        2.676159   -2.035101    0.020260
     27          9           0        1.954004   -2.930062    0.719300
     28          9           0        3.934464   -2.087957    0.517928
     29          9           0        2.763128   -2.528674   -1.238819
 ---------------------------------------------------------------------

 SCF Done:  E(RM062X) =  -1370.00065882     A.U. after    2 cycles

 The electronic state is 1-A.
 Alpha  occ. eigenvalues -- -102.56083 -25.19063 -25.18757 -25.18466 -19.45461
 Alpha  occ. eigenvalues --  -14.63210 -14.57584 -10.69541 -10.51274 -10.49736
 Alpha  occ. eigenvalues --  -10.46261 -10.45988 -10.45760 -10.45592 -10.44965
 Alpha  occ. eigenvalues --  -10.44094 -10.42859 -10.42084  -9.70754  -7.43134
 Alpha  occ. eigenvalues --   -7.42513  -7.42507  -1.35202  -1.26086  -1.25613
 Alpha  occ. eigenvalues --   -1.00588  -0.88626  -0.88175  -0.85107  -0.81714
 Alpha  occ. eigenvalues --   -0.77993  -0.74498  -0.70223  -0.68435  -0.66201
 Alpha  occ. eigenvalues --   -0.60237  -0.59147  -0.57690  -0.57506  -0.55700
 Alpha  occ. eigenvalues --   -0.52132  -0.49493  -0.46468  -0.46318  -0.45698
 Alpha  occ. eigenvalues --   -0.44817  -0.43567  -0.43036  -0.41600  -0.41283
 Alpha  occ. eigenvalues --   -0.39864  -0.39786  -0.39178  -0.38219  -0.36919
 Alpha  occ. eigenvalues --   -0.35884  -0.35597  -0.34365  -0.33714  -0.32909
 Alpha  occ. eigenvalues --   -0.32278  -0.30600  -0.29678  -0.28889  -0.28233
 Alpha  occ. eigenvalues --   -0.26896  -0.22610  -0.21280  -0.18443  -0.17599
 Alpha  occ. eigenvalues --   -0.15990  -0.10555
 Alpha virt. eigenvalues --    0.10035   0.10944   0.11527   0.12531   0.12730
 Alpha virt. eigenvalues --    0.12912   0.13644   0.14082   0.14438   0.14622
 Alpha virt. eigenvalues --    0.15352   0.15689   0.15975   0.16489   0.16880

 Mulliken charges:
               1
     1  C   -0.808352
     2  C    0.378497
     3  C   -0.715986
     4  C   -0.471036
     5  C    0.254165
     6  C   -0.331128
     7  H    0.220075
     8  N   -0.490510
     9  C    0.519032
    10  N   -0.531877
    11  O   -0.656941
    12  C   -0.251897
    13  C   -0.240415
    14  C   -0.731805
    15  H    0.210085
    16  H    0.285554
    17  H    0.391439
    18  H    0.251615
    19  H    0.171365
    20  H    0.189170
    21  H    0.217532
    22  H    0.199414
    23  H    0.190458
    24  H    0.207249
    25  Cl   0.085511
    26  C    1.395300
    27  F   -0.309870
    28  F   -0.341187
    29  F   -0.285457
 Sum of Mulliken charges =  -1.00000

 Dipole moment (field-independent basis, Debye):
    X=             -0.9892    Y=              0.5301    Z=             -0.3954  Tot=              1.1899
 Quadrupole moment (field-independent basis, Debye-Ang):
   XX=           -148.8235   YY=           -134.8555   ZZ=           -119.3145
   XY=             -4.6694   XZ=              1.9913   YZ=             -1.4661

  Exact polarizability: 267.462  15.962 174.734   1.462   0.937 109.485
 Approx polarizability: 266.068  10.158 217.314   1.104   0.081 140.730

                      1                      2                      3
                      A                      A                      A
 Frequencies --      8.9179                14.7818                38.4795
 Red. masses --     14.7895                 3.3510                 4.2118
 Frc consts  --      0.0007                 0.0004                 0.0037
 IR Inten    --      0.1247                 1.0924                 2.4142

                      4                      5                      6
                      A                      A                      A
 Frequencies --     41.0794                68.7100                87.5505
 Red. masses --      4.3057                 2.9792                 5.6477
 Frc consts  --      0.0043                 0.0083                 0.0255
 IR Inten    --      2.8281                 1.9119                 0.8596

                      7                      8                      9
                      A                      A                      A
 Frequencies --    107.4990               129.1295               148.5602
 Red. masses --      5.1471                 6.9628                 8.1964
 Frc consts  --      0.0350                 0.0684                 0.1066
 IR Inten    --      2.2294                 1.4325                 2.1188

                     10                     11                     12
                      A                      A                      A
 Frequencies --    200.9780               204.1870               233.5103
 Red. masses --      4.4214                 4.9799                 2.8069
 Frc consts  --      0.1052                 0.1223                 0.0902
 IR Inten    --      1.5157                 1.8464                 0.2372

                     13                     14                     15
                      A                      A                      A
 Frequencies --    236.3895               251.7919               272.3460
 Red. masses --      1.4403                 5.1019                 4.5242
 Frc consts  --      0.0474                 0.1906                 0.1977
 IR Inten    --      0.1177                 2.0590                 0.6905

                     16                     17                     18
                      A                      A                      A
 Frequencies --    321.8623               336.7982               350.6263
 Red. masses --     10.5721                 8.3940                 6.4689
 Frc consts  --      0.6453                 0.5610                 0.4686
 IR Inten    --      4.2160                 0.7502                 9.0035

                     19                     20                     21
                      A                      A                      A
 Frequencies --    357.1741               442.4305               450.7803
 Red. masses --      6.8151                 9.0429                 4.3665
 Frc consts  --      0.5122                 1.0429                 0.5228
 IR Inten    --     17.4119                14.3195                 5.7657

                     22                     23                     24
                      A                      A                      A
 Frequencies --    483.0183               513.3389               585.9723
 Red. masses --      5.2068                10.9156                 5.2940
 Frc consts  --      0.7157                 1.6948                 1.0710
 IR Inten    --      2.4163                 1.4605                 7.5629

                     25                     26                     27
                      A                      A                      A
 Frequencies --    594.3588               598.7087               657.4884
 Red. masses --      5.8492                 2.0382                 4.1439
 Frc consts  --      1.2174                 0.4305                 1.0554
 IR Inten    --      9.2101                60.0177                17.7475

                     28                     29                     30
                      A                      A                      A
 Frequencies --    661.9968               707.0342               711.1659
 Red. masses --      3.4587                 8.6088                 2.5751
 Frc consts  --      0.8930                 2.5356                 0.7673
 IR Inten    --     62.0484                31.6686                19.7197

                     31                     32                     33
                      A                      A                      A
 Frequencies --    752.8589               786.6489               801.9599
 Red. masses --      1.1610                 3.3167                10.1589
 Frc consts  --      0.3877                 1.2092                 3.8495
 IR Inten    --      3.2589                13.5461                22.9895

                     34                     35                     36
                      A                      A                      A
 Frequencies --    813.9250               836.8040               892.9054
 Red. masses --      1.5264                 9.4371                 1.3065
 Frc consts  --      0.5958                 3.8934                 0.6137
 IR Inten    --     20.7295                64.7547                15.0783

                     37                     38                     39
                      A                      A                      A
 Frequencies --    894.6856               916.7731               931.8266
 Red. masses --      1.5629                 1.8144                 1.3730
 Frc consts  --      0.7371                 0.8985                 0.7024
 IR Inten    --     28.8664                 2.3949                17.2921

                     40                     41                     42
                      A                      A                      A
 Frequencies --    958.3166               993.0127              1022.5109
 Red. masses --      4.7351                 5.4544                 4.3817
 Frc consts  --      2.5621                 3.1689                 2.6991
 IR Inten    --     44.7238               188.2560                15.6662

                     43                     44                     45
                      A                      A                      A
 Frequencies --   1071.4292              1124.7229              1130.0428
 Red. masses --      2.5702                 1.9025                 1.5386
 Frc consts  --      1.7384                 1.4180                 1.1576
 IR Inten    --      4.5851                56.2719                11.7250

                     46                     47                     48
                      A                      A                      A
 Frequencies --   1144.5566              1161.2905              1179.6651
 Red. masses --      2.1132                 1.8058                10.5474
 Frc consts  --      1.6311                 1.4348                 8.6479
 IR Inten    --     20.9636                13.8759               267.9611

                     49                     50                     51
                      A                      A                      A
 Frequencies --   1196.5156              1218.1124              1242.3045
 Red. masses --      3.1481                 9.1857                 2.1650
 Frc consts  --      2.6554                 8.0304                 1.9686
 IR Inten    --     14.0163               300.5515               359.7238

                     52                     53                     54
                      A                      A                      A
 Frequencies --   1274.6564              1277.0783              1313.3223
 Red. masses --      1.3610                 1.3859                 1.3167
 Frc consts  --      1.3029                 1.3317                 1.3381
 IR Inten    --    128.2585               127.2384                27.9301

                     55                     56                     57
                      A                      A                      A
 Frequencies --   1327.1721              1339.1811              1349.7655
 Red. masses --      1.9658                 2.0466                 2.7045
 Frc consts  --      2.0400                 2.1625                 2.9030
 IR Inten    --    213.6097                22.1389               254.7945

                     58                     59                     60
                      A                      A                      A
 Frequencies --   1410.3489              1426.0463              1437.7188
 Red. masses --      2.1199                 1.3126                 3.1330
 Frc consts  --      2.4844                 1.5727                 3.8156
 IR Inten    --    229.3474                18.0649               238.5430

                     61                     62                     63
                      A                      A                      A
 Frequencies --   1490.3114              1506.4996              1511.5094
 Red. masses --      5.5672                 1.8765                 1.1016
 Frc consts  --      7.2852                 2.5093                 1.4829
 IR Inten    --     59.1706               998.6673                48.2149

                     64                     65                     66
                      A                      A                      A
 Frequencies --   1522.5049              1522.9089              1530.2913
 Red. masses --      1.1011                 1.0606                 2.2961
 Frc consts  --      1.5038                 1.4493                 3.1680
 IR Inten    --      8.7821                28.9449               509.1890

                     67                     68                     69
                      A                      A                      A
 Frequencies --   1534.3793              1626.6938              1645.7578
 Red. masses --      1.3926                 6.5512                 6.6579
 Frc consts  --      1.9317                10.2137                10.6247
 IR Inten    --    178.7954                84.2267               577.1459

                     70                     71                     72
                      A                      A                      A
 Frequencies --   1709.8838              2965.8835              3053.0816
 Red. masses --      8.2216                 1.0736                 1.0663
 Frc consts  --     14.1625                 5.5641                 5.8563
 IR Inten    --    249.1489               134.1630                38.4209

                     73                     74                     75
                      A                      A                      A
 Frequencies --   3063.6491              3102.5836              3131.5536
 Red. masses --      1.0356                 1.0956                 1.0990
 Frc consts  --      5.7271                 6.2136                 6.3496
 IR Inten    --     50.7160                12.1222                41.8061

                     76                     77                     78
                      A                      A                      A
 Frequencies --   3135.4832              3141.9083              3243.5177
 Red. masses --      1.1013                 1.0916                 1.0912
 Frc consts  --      6.3794                 6.3488                 6.7637
 IR Inten    --     54.6469                31.7137                 2.5760

                     79                     80                     81
                      A                      A                      A
 Frequencies --   3264.5576              3282.8612              3627.2539
 Red. masses --      1.0921                 1.0911                 1.0759
 Frc consts  --      6.8572                 6.9281                 8.3404
 IR Inten    --      0.3116                11.7330                10.2675

 - Thermochemistry -
 -------------------
 Temperature   298.150 Kelvin.  Pressure   1.00000 Atm.
 Atom     1 has atomic number  6 and mass  12.00000

 Molecular mass:   279.05120 amu.
 Principal axes and moments of inertia in atomic units:
                           1         2         3
     Eigenvalues --  3461.09546********************
           X            0.99998   0.00697   0.00076
           Y           -0.00697   0.99998   0.00074
           Z           -0.00075  -0.00075   1.00000
 This molecule is an asymmetric top.
 Rotational symmetry number  1.
 Warning -- assumption of classical behavior for rotation
           may cause significant error
 Rotational temperatures (Kelvin)      0.02502     0.00763     0.00600
 Rotational constants (GHZ):           0.52144     0.15893     0.12505
 Zero-point vibrational energy     560186.6 (Joules/Mol)
                                  133.88782 (Kcal/Mol)
 Warning -- explicit consideration of  26 degrees of freedom as
           vibrations may cause significant error
 Vibrational temperatures:     12.83    21.27    55.36    59.10    98.86
          (Kelvin)            125.97   154.67   185.79   213.74   289.16
                              293.78   335.97   340.11   362.27   391.84
                              463.09   484.58   504.47   513.89   636.56
                              648.57   694.95   738.58   843.08   855.15
                              861.41   945.98   952.46  1017.26  1023.21
                             1083.19  1131.81  1153.84  1171.06  1203.97
                             1284.69  1287.25  1319.03  1340.69  1378.80
                             1428.72  1471.16  1541.55  1618.22  1625.88
                             1646.76  1670.84  1697.27  1721.52  1752.59
                             1787.40  1833.94  1837.43  1889.58  1909.50
                             1926.78  1942.01  2029.18  2051.76  2068.55
                             2144.22  2167.51  2174.72  2190.54  2191.12
                             2201.75  2207.63  2340.45  2367.88  2460.14
                             4267.24  4392.70  4407.90  4463.92  4505.60
                             4511.26  4520.50  4666.69  4696.96  4723.30
                             5218.80

 Zero-point correction=                           0.213364 (Hartree/Particle)
 Thermal correction to Energy=                    0.230875
 Thermal correction to Enthalpy=                  0.231819
 Thermal correction to Gibbs Free Energy=         0.163099
 Sum of electronic and zero-point Energies=          -1369.787295
 Sum of electronic and thermal Energies=             -1369.769784
 Sum of electronic and thermal Enthalpies=           -1369.768839
 Sum of electronic and thermal Free Energies=        -1369.837560

                     E (Thermal)             CV                S
                      KCal/Mol        Cal/Mol-Kelvin    Cal/Mol-Kelvin
 Total                  144.876             62.770            144.634
 Electronic               0.000              0.000              0.000
 Translational            0.889              2.981             42.777
 Rotational               0.889              2.981             34.694
 Vibrational            143.099             56.809             67.163
 Vibration     1          0.593              1.987              8.239
 Vibration     2          0.593              1.986              7.235
 Vibration     3          0.594              1.982              5.336
 Vibration     4          0.594              1.981              5.206
 Vibration     5          0.598              1.969              4.190
 Vibration     6          0.601              1.958              3.714
 Vibration     7          0.606              1.943              3.314
 Vibration     8          0.612              1.924              2.959
 Vibration     9          0.618              1.904              2.691
 Vibration    10          0.638              1.839              2.124
 Vibration    11          0.640              1.834              2.095
 Vibration    12          0.654              1.790              1.852
 Vibration    13          0.655              1.785              1.830
 Vibration    14          0.664              1.760              1.718
 Vibration    15          0.675              1.724              1.581
 Vibration    16          0.707              1.632              1.301
 Vibration    17          0.718              1.602              1.227
 Vibration    18          0.728              1.574              1.163
 Vibration    19          0.732              1.561              1.134
 Vibration    20          0.802              1.378              0.819
 Vibration    21          0.810              1.359              0.793
 Vibration    22          0.839              1.288              0.702
 Vibration    23          0.868              1.220              0.626
 Vibration    24          0.943              1.062              0.474
 Vibration    25          0.952              1.044              0.459
 Vibration    26          0.957              1.035              0.452

 Optimization completed.
    -- Stationary point found.
 Normal termination of Gaussian 09 at Thu Jul 12 17:55:26 2018.
