 Gaussian 09, Revision E.01,

 ----------------------------------------------------------------------
 # M062X/Gen 6D SCF=Tight INT(grid=ultrafine) OPT=CalcFC IOP(2/17=4) ma
 xdisk=3221225472
 ----------------------------------------------------------------------

 --------------------------------
 3SF5Chloro_EtO.M062X_6-31pGd_opt
 --------------------------------
 Symbolic Z-matrix:
 Charge = -1 Multiplicity = 1

 SCF Done:  E(RM062X) =  -2197.80147361     A.U. after   17 cycles
 SCF Done:  E(RM062X) =  -2197.83903264     A.U. after   16 cycles
 SCF Done:  E(RM062X) =  -2197.86524511     A.U. after   15 cycles
 SCF Done:  E(RM062X) =  -2197.84469993     A.U. after   16 cycles
 SCF Done:  E(RM062X) =  -2197.88820177     A.U. after   13 cycles
 SCF Done:  E(RM062X) =  -2197.89393689     A.U. after   15 cycles
 SCF Done:  E(RM062X) =  -2197.15998628     A.U. after   26 cycles
 SCF Done:  E(RM062X) =  -2197.62691642     A.U. after   16 cycles
 SCF Done:  E(RM062X) =  -2197.80937648     A.U. after   16 cycles
 SCF Done:  E(RM062X) =  -2197.89394124     A.U. after    9 cycles
 SCF Done:  E(RM062X) =  -2197.90825185     A.U. after   11 cycles
 SCF Done:  E(RM062X) =  -2197.90825819     A.U. after   12 cycles
 SCF Done:  E(RM062X) =  -2197.90826171     A.U. after   12 cycles
 SCF Done:  E(RM062X) =  -2197.90826297     A.U. after   11 cycles
 SCF Done:  E(RM062X) =  -2197.90826367     A.U. after   11 cycles
 SCF Done:  E(RM062X) =  -2197.90826421     A.U. after   10 cycles
 SCF Done:  E(RM062X) =  -2197.90826477     A.U. after   10 cycles
 SCF Done:  E(RM062X) =  -2197.90826516     A.U. after   10 cycles
 SCF Done:  E(RM062X) =  -2197.90826524     A.U. after    9 cycles
 Optimization completed.
    -- Stationary point found.
 Normal termination of Gaussian 09 at Tue Feb 26 15:50:01 2019.
 Gaussian 09:  ES64L-G09RevE.01 30-Nov-2015

 ----------------------------------------------------------------------
 # M062X/Gen 6D SCF=Tight INT(grid=ultrafine) Freq=Noraman maxdisk=3221
 225472 geom=check guess=read IOP(2/17=4)
 ----------------------------------------------------------------------

 --------------------------------
 3SF5Chloro_EtO.M062X_6-31pGd_opt
 --------------------------------
 Structure from the checkpoint file:  "3SF5Chloro_EtO.M062X_6-31pGd_opt.chk"
 Charge = -1 Multiplicity = 1

                         Standard orientation:
 ---------------------------------------------------------------------
 Center     Atomic      Atomic             Coordinates (Angstroms)
 Number     Number       Type             X           Y           Z
 ---------------------------------------------------------------------
      1          6           0        4.123355   -5.180239    0.675438
      2          6           0        3.567152   -3.765328    0.820303
      3          6           0        3.508930   -3.039749   -0.525656
      4          7           0        2.977543   -1.700228   -0.430260
      5          6           0        1.640375   -1.505222   -0.352624
      6          8           0        0.812226   -2.419295   -0.396199
      7          7           0        1.300655   -0.163133   -0.227947
      8          6           0        0.036219    0.365386   -0.116988
      9          6           0       -1.151319   -0.394848   -0.127055
     10          6           0       -0.049534    1.768896    0.014645
     11          6           0       -1.287761    2.372163    0.131045
     12          6           0       -2.480860    1.654894    0.126221
     13          6           0       -2.357199    0.277724   -0.004702
     14          1           0        4.169196   -5.696783    1.639954
     15          1           0        5.136928   -5.164269    0.256109
     16          1           0        3.495349   -5.778805    0.005120
     17          1           0        4.187188   -3.178868    1.509221
     18          1           0        2.553645   -3.794761    1.235812
     19          1           0        2.889444   -3.618233   -1.221976
     20          1           0        4.516145   -2.961133   -0.951338
     21          1           0        3.636188   -0.904227   -0.342892
     22          1           0        2.075811    0.538257   -0.200171
     23          1           0       -1.094134   -1.469763   -0.228543
     24          1           0        0.866766    2.354648    0.023470
     25          1           0       -3.438722    2.149584    0.219576
     26         16           0       -3.884231   -0.704275   -0.014011
     27          9           0       -3.411643   -1.602459   -1.266633
     28          9           0       -4.630399    0.314753   -1.030438
     29          9           0       -3.293505   -1.806069    1.003836
     30         17           0       -1.371652    4.114065    0.293756
     31          9           0       -5.255480   -1.566932   -0.019873
     32          9           0       -4.512252    0.111305    1.238640
     33          8           0        4.828143    0.402348   -0.201348
     34          8           0        3.136300    1.875168   -0.109589
     35          6           0        4.360026    1.564677   -0.114760
     36          6           0        5.383078    2.706044   -0.007070
     37          6           0        4.769193    4.095077    0.116787
     38          1           0        6.031306    2.638379   -0.889629
     39          1           0        6.026653    2.479804    0.851975
     40          1           0        4.135521    4.315841   -0.746921
     41          1           0        5.545498    4.866745    0.188289
     42          1           0        4.131853    4.158413    1.003510
 ---------------------------------------------------------------------

 SCF Done:  E(RM062X) =  -2197.90826524     A.U. after    1 cycles

 The electronic state is 1-A.
 Alpha  occ. eigenvalues -- -102.58912 -90.23584 -25.21583 -25.21573 -25.21557
 Alpha  occ. eigenvalues --  -25.21553 -25.21443 -19.49752 -19.47723 -19.47139
 Alpha  occ. eigenvalues --  -14.67478 -14.65509 -10.56771 -10.53691 -10.52315
 Alpha  occ. eigenvalues --  -10.52154 -10.52107 -10.48705 -10.47582 -10.47345
 Alpha  occ. eigenvalues --  -10.47176 -10.45518 -10.44688 -10.43300 -10.43195
 Alpha  occ. eigenvalues --   -9.73575  -8.52258  -7.45973  -7.45322  -7.45308
 Alpha  occ. eigenvalues --   -6.44683  -6.44672  -6.44225  -1.40226  -1.30513
 Alpha  occ. eigenvalues --   -1.30449  -1.27407  -1.26086  -1.05955  -1.03788
 Alpha  occ. eigenvalues --   -0.94965  -0.94036  -0.91916  -0.90370  -0.87319
 Alpha  occ. eigenvalues --   -0.82598  -0.78667  -0.76046  -0.75358  -0.74832
 Alpha  occ. eigenvalues --   -0.68545  -0.65960  -0.64262  -0.64033  -0.62316
 Alpha  occ. eigenvalues --   -0.61671  -0.58696  -0.57654  -0.55323  -0.54445
 Alpha  occ. eigenvalues --   -0.53310  -0.52688  -0.51284  -0.50251  -0.49252
 Alpha  occ. eigenvalues --   -0.48821  -0.46663  -0.45871  -0.45764  -0.45610
 Alpha  occ. eigenvalues --   -0.45563  -0.44836  -0.43519  -0.43345  -0.43015
 Alpha  occ. eigenvalues --   -0.42526  -0.42158  -0.41908  -0.41851  -0.41329
 Alpha  occ. eigenvalues --   -0.40971  -0.39567  -0.39265  -0.38591  -0.38155
 Alpha  occ. eigenvalues --   -0.37572  -0.36262  -0.35126  -0.34507  -0.34099
 Alpha  occ. eigenvalues --   -0.33676  -0.33220  -0.32473  -0.31584  -0.31222
 Alpha  occ. eigenvalues --   -0.29965  -0.29669  -0.29191  -0.28004  -0.23448
 Alpha  occ. eigenvalues --   -0.22354  -0.20605  -0.20165  -0.19997  -0.19346
 Alpha  occ. eigenvalues --   -0.16662
 Alpha virt. eigenvalues --    0.07206   0.08585   0.09532   0.10114   0.10549
 Alpha virt. eigenvalues --    0.11251   0.11799   0.11975   0.12095   0.12534
 Alpha virt. eigenvalues --    0.12725   0.13085   0.13403   0.13832   0.14445

 Mulliken charges:
               1
     1  C   -0.824475
     2  C   -0.141752
     3  C   -0.326922
     4  N   -0.565604
     5  C    0.604699
     6  O   -0.607631
     7  N   -0.717941
     8  C    0.078027
     9  C   -0.109550
    10  C   -0.488766
    11  C    0.632808
    12  C   -0.896032
    13  C   -0.184833
    14  H    0.195917
    15  H    0.198409
    16  H    0.206181
    17  H    0.212522
    18  H    0.235020
    19  H    0.227403
    20  H    0.205122
    21  H    0.530310
    22  H    0.514866
    23  H    0.308306
    24  H    0.302524
    25  H    0.245022
    26  S    2.309010
    27  F   -0.487451
    28  F   -0.497878
    29  F   -0.487378
    30  Cl   0.146893
    31  F   -0.510055
    32  F   -0.497824
    33  O   -0.624964
    34  O   -0.673164
    35  C    0.718717
    36  C   -0.550409
    37  C   -0.708992
    38  H    0.210586
    39  H    0.210750
    40  H    0.217862
    41  H    0.173642
    42  H    0.217024
 Sum of Mulliken charges =  -1.00000

 Dipole moment (field-independent basis, Debye):
    X=             -4.2996    Y=             -0.1441    Z=              0.6932  Tot=              4.3575
 Quadrupole moment (field-independent basis, Debye-Ang):
   XX=           -232.9913   YY=           -191.8648   ZZ=           -167.4812
   XY=            -10.2315   XZ=              1.5209   YZ=             -1.1847

  Exact polarizability: 280.059 -19.433 269.515  -3.295   6.707 146.530
 Approx polarizability: 298.996 -18.668 296.042  -5.607  10.246 190.823

                      1                      2                      3
                      A                      A                      A
 Frequencies --     13.9263                19.8180                22.1688
 Red. masses --      6.2544                 4.8149                 2.7653
 Frc consts  --      0.0007                 0.0011                 0.0008
 IR Inten    --      0.0515                 0.6504                 0.0355

                      4                      5                      6
                      A                      A                      A
 Frequencies --     30.7808                40.6730                45.7494
 Red. masses --      3.9702                11.9242                 3.7967
 Frc consts  --      0.0022                 0.0116                 0.0047
 IR Inten    --      0.2081                 0.2951                 0.8266

                      7                      8                      9
                      A                      A                      A
 Frequencies --     47.8184                57.7325                67.3901
 Red. masses --      4.6461                 8.2242                 4.2127
 Frc consts  --      0.0063                 0.0162                 0.0113
 IR Inten    --      1.4578                 0.2060                 1.3004

                     10                     11                     12
                      A                      A                      A
 Frequencies --     78.9752                87.8859                92.4650
 Red. masses --      5.7424                 2.7496                 5.2351
 Frc consts  --      0.0211                 0.0125                 0.0264
 IR Inten    --      6.6253                 1.8678                 1.5867

                     13                     14                     15
                      A                      A                      A
 Frequencies --    106.0979               126.6069               140.1283
 Red. masses --      4.9125                 7.9803                11.1439
 Frc consts  --      0.0326                 0.0754                 0.1289
 IR Inten    --      1.9738                 4.9874                 1.6737

                     16                     17                     18
                      A                      A                      A
 Frequencies --    158.6761               198.9682               199.9534
 Red. masses --      4.9403                 9.4807                 6.7435
 Frc consts  --      0.0733                 0.2211                 0.1589
 IR Inten    --     27.2404                 2.9977                 0.4933

                     19                     20                     21
                      A                      A                      A
 Frequencies --    217.4937               238.1352               241.1390
 Red. masses --      1.1287                 1.4908                 4.5691
 Frc consts  --      0.0315                 0.0498                 0.1565
 IR Inten    --      0.5174                 3.3695                 0.0349

                     22                     23                     24
                      A                      A                      A
 Frequencies --    242.2976               265.8391               278.8299
 Red. masses --      2.7977                 5.8082                 7.6780
 Frc consts  --      0.0968                 0.2418                 0.3517
 IR Inten    --      8.9944                 0.4430                 0.0094

                     25                     26                     27
                      A                      A                      A
 Frequencies --    292.5928               304.2120               335.4335
 Red. masses --      3.3539                 4.0043                 6.4236
 Frc consts  --      0.1692                 0.2183                 0.4258
 IR Inten    --      2.1176                20.4246                 6.9751

                     28                     29                     30
                      A                      A                      A
 Frequencies --    335.8778               340.0975               392.5625
 Red. masses --      5.0938                18.8628                15.1599
 Frc consts  --      0.3386                 1.2855                 1.3765
 IR Inten    --     29.1332                 0.0081                 3.7009

                     31                     32                     33
                      A                      A                      A
 Frequencies --    394.1153               446.9389               455.5768
 Red. masses --     11.7763                 8.6456                18.4152
 Frc consts  --      1.0777                 1.0175                 2.2519
 IR Inten    --      1.0667                 3.0692                 0.0483

                     34                     35                     36
                      A                      A                      A
 Frequencies --    482.2380               499.9049               520.7811
 Red. masses --      5.8870                 5.5225                 5.6787
 Frc consts  --      0.8066                 0.8131                 0.9074
 IR Inten    --      9.6952                 2.5353                19.0416

                     37                     38                     39
                      A                      A                      A
 Frequencies --    540.3358               559.6556               566.1306
 Red. masses --     13.3703                15.3810                 6.1159
 Frc consts  --      2.3000                 2.8384                 1.1549
 IR Inten    --      7.9290                 6.0511                 0.9645

                     40                     41                     42
                      A                      A                      A
 Frequencies --    582.8075               591.5043               614.4142
 Red. masses --      1.9817                18.2094                14.4775
 Frc consts  --      0.3966                 3.7537                 3.2201
 IR Inten    --      0.7634                91.8993                 0.1013

                     43                     44                     45
                      A                      A                      A
 Frequencies --    621.8546               656.5535               662.2014
 Red. masses --      6.2716                 5.1079                10.0485
 Frc consts  --      1.4289                 1.2973                 2.5962
 IR Inten    --      2.9322                81.6558                12.2339

                     46                     47                     48
                      A                      A                      A
 Frequencies --    674.8484               689.2418               726.0783
 Red. masses --      6.5253                 2.7598                 2.0309
 Frc consts  --      1.7509                 0.7724                 0.6308
 IR Inten    --      5.2359                 7.9174                36.2767

                     49                     50                     51
                      A                      A                      A
 Frequencies --    758.1004               768.9116               781.9838
 Red. masses --      2.5717                 4.8974                 2.8194
 Frc consts  --      0.8708                 1.7059                 1.0158
 IR Inten    --     81.5904                37.5112                60.4876

                     52                     53                     54
                      A                      A                      A
 Frequencies --    821.1136               833.0020               845.6394
 Red. masses --      1.4262                 1.2285                 1.4218
 Frc consts  --      0.5666                 0.5023                 0.5991
 IR Inten    --      2.9121                23.1154                 4.9511

                     55                     56                     57
                      A                      A                      A
 Frequencies --    875.8346               888.6370               896.4011
 Red. masses --      5.2269                 3.7249                 1.6739
 Frc consts  --      2.3623                 1.7331                 0.7925
 IR Inten    --    251.9227               107.5818                36.7921

                     58                     59                     60
                      A                      A                      A
 Frequencies --    900.2754               902.4243               905.7893
 Red. masses --     13.0666                 1.7523                17.3191
 Frc consts  --      6.2397                 0.8408                 8.3720
 IR Inten    --    325.3748                24.9108               248.9323

                     61                     62                     63
                      A                      A                      A
 Frequencies --    921.0847               940.4891               972.2480
 Red. masses --      1.5298                 1.2539                 5.9755
 Frc consts  --      0.7647                 0.6534                 3.3280
 IR Inten    --     78.8300                19.5029               111.9713

                     64                     65                     66
                      A                      A                      A
 Frequencies --    988.2581              1006.5446              1022.5274
 Red. masses --      1.1260                 5.7321                 1.6910
 Frc consts  --      0.6480                 3.4216                 1.0417
 IR Inten    --     93.6945                57.2724                 3.6505

                     67                     68                     69
                      A                      A                      A
 Frequencies --   1035.6452              1067.3233              1108.0197
 Red. masses --      3.5202                 2.6260                 1.7753
 Frc consts  --      2.2245                 1.7626                 1.2841
 IR Inten    --     27.7263                 1.5767                 0.7750

                     70                     71                     72
                      A                      A                      A
 Frequencies --   1112.8421              1139.2900              1142.7916
 Red. masses --      2.3787                 2.1814                 1.5007
 Frc consts  --      1.7356                 1.6682                 1.1547
 IR Inten    --      5.1836                 9.6665                13.0986

                     73                     74                     75
                      A                      A                      A
 Frequencies --   1162.2192              1192.0501              1194.0884
 Red. masses --      1.7129                 3.9999                 1.9526
 Frc consts  --      1.3632                 3.3488                 1.6404
 IR Inten    --     60.7397                 3.4494                 6.9505

                     76                     77                     78
                      A                      A                      A
 Frequencies --   1286.6569              1286.7902              1292.9677
 Red. masses --      1.1897                 1.4610                 1.2333
 Frc consts  --      1.1604                 1.4253                 1.2148
 IR Inten    --      0.9063                53.7757                 9.4019

                     79                     80                     81
                      A                      A                      A
 Frequencies --   1323.4031              1330.9059              1335.6655
 Red. masses --      2.3468                 1.5918                 1.6312
 Frc consts  --      2.4216                 1.6612                 1.7145
 IR Inten    --    164.2121                76.2636                28.2396

                     82                     83                     84
                      A                      A                      A
 Frequencies --   1351.3551              1358.2328              1383.6012
 Red. masses --      1.3251                 1.6237                 4.0234
 Frc consts  --      1.4257                 1.7648                 4.5380
 IR Inten    --    151.2926               239.4726               195.6232

                     85                     86                     87
                      A                      A                      A
 Frequencies --   1423.0005              1424.6211              1427.1096
 Red. masses --      1.3226                 1.2709                 1.5233
 Frc consts  --      1.5779                 1.5197                 1.8279
 IR Inten    --     25.0219                 2.1595                 0.7882

                     88                     89                     90
                      A                      A                      A
 Frequencies --   1469.7610              1473.2317              1491.8399
 Red. masses --      3.3262                 3.5205                 1.2409
 Frc consts  --      4.2334                 4.5019                 1.6272
 IR Inten    --     17.1834               375.8527                28.1798

                     91                     92                     93
                      A                      A                      A
 Frequencies --   1494.9756              1511.8884              1514.3991
 Red. masses --      1.0929                 1.0393                 1.0709
 Frc consts  --      1.4392                 1.3997                 1.4471
 IR Inten    --     12.4094                 5.2009                 1.0681

                     94                     95                     96
                      A                      A                      A
 Frequencies --   1523.6532              1523.8209              1529.3697
 Red. masses --      1.1011                 1.0464                 1.0905
 Frc consts  --      1.5061                 1.4316                 1.5028
 IR Inten    --     46.3673                25.8379                19.1940

                     97                     98                     99
                      A                      A                      A
 Frequencies --   1531.8762              1614.0944              1640.8404
 Red. masses --      3.6537                 3.4966                 2.4633
 Frc consts  --      5.0516                 5.3673                 3.9075
 IR Inten    --    373.4933                80.4114                33.8053

                    100                    101                    102
                      A                      A                      A
 Frequencies --   1671.8431              1685.8710              1718.7008
 Red. masses --      5.7290                 2.4601                 3.5912
 Frc consts  --      9.4346                 4.1196                 6.2501
 IR Inten    --    723.9422               121.7958               741.3194

                    103                    104                    105
                      A                      A                      A
 Frequencies --   1789.0340              2998.7217              3062.5594
 Red. masses --      2.9981                 1.1002                 1.0363
 Frc consts  --      5.6536                 5.8288                 5.7268
 IR Inten    --    355.7619              1164.7942                41.3762

                    106                    107                    108
                      A                      A                      A
 Frequencies --   3067.6066              3068.6787              3076.0585
 Red. masses --      1.0461                 1.0586                 1.0567
 Frc consts  --      5.7997                 5.8733                 5.8909
 IR Inten    --     92.1368                27.7428                24.6188

                    109                    110                    111
                      A                      A                      A
 Frequencies --   3080.8994              3108.2943              3108.8629
 Red. masses --      1.0619                 1.1013                 1.1011
 Frc consts  --      5.9385                 6.2690                 6.2701
 IR Inten    --     58.3866                15.2991                20.8738

                    112                    113                    114
                      A                      A                      A
 Frequencies --   3121.5383              3138.2904              3139.4666
 Red. masses --      1.1040                 1.1008                 1.0959
 Frc consts  --      6.3379                 6.3877                 6.3640
 IR Inten    --      0.5169                49.8804                47.0467

                    115                    116                    117
                      A                      A                      A
 Frequencies --   3141.9820              3161.8344              3182.9878
 Red. masses --      1.1055                 1.1023                 1.0925
 Frc consts  --      6.4301                 6.4926                 6.5215
 IR Inten    --     59.8250                35.5302              1677.4304

                    118                    119                    120
                      A                      A                      A
 Frequencies --   3226.8434              3282.2948              3300.3969
 Red. masses --      1.0942                 1.0928                 1.0915
 Frc consts  --      6.7125                 6.9368                 7.0049
 IR Inten    --    110.3183                 3.9006                35.8347

 - Thermochemistry -
 -------------------
 Temperature   298.150 Kelvin.  Pressure   1.00000 Atm.
 Atom     1 has atomic number  6 and mass  12.00000

 Molecular mass:   411.05686 amu.
 Principal axes and moments of inertia in atomic units:
                           1         2         3
     Eigenvalues --  8634.60608********************
           X            0.99985  -0.01725   0.00218
           Y            0.01726   0.99984  -0.00540
           Z           -0.00209   0.00543   0.99998
 This molecule is an asymmetric top.
 Rotational symmetry number  1.
 Warning -- assumption of classical behavior for rotation
           may cause significant error
 Rotational temperatures (Kelvin)      0.01003     0.00490     0.00342
 Rotational constants (GHZ):           0.20901     0.10207     0.07129
 Zero-point vibrational energy     814452.7 (Joules/Mol)
                                  194.65888 (Kcal/Mol)
 Warning -- explicit consideration of  42 degrees of freedom as
           vibrations may cause significant error
 Vibrational temperatures:     20.04    28.51    31.90    44.29    58.52
          (Kelvin)             65.82    68.80    83.06    96.96   113.63
                              126.45   133.04   152.65   182.16   201.61
                              228.30   286.27   287.69   312.92   342.62
                              346.94   348.61   382.48   401.17   420.98
                              437.69   482.61   483.25   489.32   564.81
                              567.04   643.04   655.47   693.83   719.25
                              749.29   777.42   805.22   814.53   838.53
                              851.04   884.00   894.71   944.63   952.76
                              970.96   991.66  1044.66  1090.74  1106.29
                             1125.10  1181.40  1198.50  1216.68  1260.13
                             1278.55  1289.72  1295.29  1298.39  1303.23
                             1325.23  1353.15  1398.85  1421.88  1448.19
                             1471.19  1490.06  1535.64  1594.19  1601.13
                             1639.18  1644.22  1672.17  1715.09  1718.02
                             1851.21  1851.40  1860.29  1904.08  1914.87
                             1921.72  1944.30  1954.19  1990.69  2047.38
                             2049.71  2053.29  2114.66  2119.65  2146.42
                             2150.93  2175.27  2178.88  2192.19  2192.44
                             2200.42  2204.03  2322.32  2360.80  2405.41
                             2425.59  2472.82  2574.02  4314.49  4406.33
                             4413.60  4415.14  4425.76  4432.72  4472.14
                             4472.95  4491.19  4515.29  4516.99  4520.61
                             4549.17  4579.60  4642.70  4722.48  4748.53

 Zero-point correction=                           0.310209 (Hartree/Particle)
 Thermal correction to Energy=                    0.336850
 Thermal correction to Enthalpy=                  0.337794
 Thermal correction to Gibbs Free Energy=         0.247931
 Sum of electronic and zero-point Energies=          -2197.598057
 Sum of electronic and thermal Energies=             -2197.571416
 Sum of electronic and thermal Enthalpies=           -2197.570471
 Sum of electronic and thermal Free Energies=        -2197.660334

                     E (Thermal)             CV                S
                      KCal/Mol        Cal/Mol-Kelvin    Cal/Mol-Kelvin
 Total                  211.376             95.221            189.133
 Electronic               0.000              0.000              0.000
 Translational            0.889              2.981             43.932
 Rotational               0.889              2.981             36.600
 Vibrational            209.599             89.260            108.601
 Vibration     1          0.593              1.986              7.353
 Vibration     2          0.593              1.986              6.652
 Vibration     3          0.593              1.985              6.430
 Vibration     4          0.594              1.984              5.778
 Vibration     5          0.594              1.981              5.226
 Vibration     6          0.595              1.979              4.993
 Vibration     7          0.595              1.978              4.906
 Vibration     8          0.596              1.974              4.533
 Vibration     9          0.598              1.970              4.228
 Vibration    10          0.600              1.963              3.916
 Vibration    11          0.601              1.958              3.707
 Vibration    12          0.602              1.955              3.607
 Vibration    13          0.605              1.944              3.339
 Vibration    14          0.611              1.927              2.997
 Vibration    15          0.615              1.913              2.802
 Vibration    16          0.621              1.893              2.566
 Vibration    17          0.637              1.841              2.143
 Vibration    18          0.638              1.840              2.134
 Vibration    19          0.646              1.814              1.980
 Vibration    20          0.656              1.782              1.817
 Vibration    21          0.658              1.777              1.794
 Vibration    22          0.658              1.775              1.786
 Vibration    23          0.672              1.736              1.623
 Vibration    24          0.679              1.713              1.541
 Vibration    25          0.688              1.688              1.459
 Vibration    26          0.695              1.666              1.394
 Vibration    27          0.717              1.605              1.234
 Vibration    28          0.717              1.604              1.232
 Vibration    29          0.720              1.595              1.212
 Vibration    30          0.760              1.486              0.990
 Vibration    31          0.761              1.483              0.985
 Vibration    32          0.806              1.368              0.805
 Vibration    33          0.814              1.349              0.779
 Vibration    34          0.838              1.289              0.704
 Vibration    35          0.855              1.250              0.658
 Vibration    36          0.876              1.204              0.608
 Vibration    37          0.895              1.161              0.565
 Vibration    38          0.915              1.119              0.525
 Vibration    39          0.922              1.105              0.512
 Vibration    40          0.940              1.069              0.480
 Vibration    41          0.949              1.050              0.465
 Vibration    42          0.974              1.001              0.426

 Normal termination of Gaussian 09 at Tue Feb 26 16:55:48 2019.
