 Gaussian 09, Revision E.01,

 ----------------------------------------------------------------------
 # M062X/Gen 6D SCF=Tight INT(grid=ultrafine) OPT IOP(2/17=4) Freq=Nora
 man SCRF=(SMD,Solvent=h2o) maxdisk=2147483648
 ----------------------------------------------------------------------

 ----------------------------------
 aryl_urea_Cl_CF3.M062X.SMD.h2o.opt
 ----------------------------------
 Symbolic Z-matrix:
 Charge =  0 Multiplicity = 1

 SCF Done:  E(RM062X) =  -1370.51825154     A.U. after   15 cycles
 SCF Done:  E(RM062X) =  -1370.54839455     A.U. after   14 cycles
 SCF Done:  E(RM062X) =  -1370.55486906     A.U. after   14 cycles
 SCF Done:  E(RM062X) =  -1370.55574693     A.U. after   13 cycles
 SCF Done:  E(RM062X) =  -1370.55596512     A.U. after   12 cycles
 SCF Done:  E(RM062X) =  -1370.55602442     A.U. after   12 cycles
 SCF Done:  E(RM062X) =  -1370.55605311     A.U. after   12 cycles
 SCF Done:  E(RM062X) =  -1370.55607200     A.U. after   12 cycles
 SCF Done:  E(RM062X) =  -1370.55605657     A.U. after   14 cycles
 SCF Done:  E(RM062X) =  -1370.55614130     A.U. after   11 cycles
 SCF Done:  E(RM062X) =  -1370.55622006     A.U. after   11 cycles
 SCF Done:  E(RM062X) =  -1370.55621882     A.U. after   11 cycles
 SCF Done:  E(RM062X) =  -1370.55621986     A.U. after   11 cycles
 SCF Done:  E(RM062X) =  -1370.55622071     A.U. after   10 cycles
 SCF Done:  E(RM062X) =  -1370.55622076     A.U. after   10 cycles
 SCF Done:  E(RM062X) =  -1370.55622075     A.U. after    9 cycles
 SCF Done:  E(RM062X) =  -1370.55622072     A.U. after    8 cycles
 Optimization completed.
    -- Stationary point found.
 Normal termination of Gaussian 09 at Thu Jul 12 20:43:14 2018.

 ----------------------------------------------------------------------
 #N Geom=AllCheck Guess=TCheck SCRF=Check Test GenChk RM062X/ChkBas Fre
 q
 ----------------------------------------------------------------------

 Structure from the checkpoint file:  "aryl_urea_Cl_CF3.M062X.SMD.h2o.opt.chk"
 ----------------------------------
 aryl_urea_Cl_CF3.M062X.SMD.h2o.opt
 ----------------------------------
 Charge =  0 Multiplicity = 1

 SCF Done:  E(RM062X) =  -1370.55622072     A.U. after    1 cycles
 Optimization completed.
 Normal termination of Gaussian 09 at Thu Jul 12 21:26:25 2018.
 Gaussian 09:  ES64L-G09RevE.01 30-Nov-2015

 ----------------------------------------------------------------------
 # M062X/Gen 6D SCF=Tight INT(grid=ultrafine) OPT IOP(2/17=4) Freq=Nora
 man SCRF=(SMD,Solvent=h2o) geom=check guess=read IOP(2/17=4) maxdisk=2
 147483648
 ----------------------------------------------------------------------

 ----------------------------------
 aryl_urea_Cl_CF3.M062X.SMD.h2o.opt
 ----------------------------------
 Structure from the checkpoint file:  "aryl_urea_Cl_CF3.M062X.SMD.h2o.opt.chk"
 Charge =  0 Multiplicity = 1

 SCF Done:  E(RM062X) =  -1370.55622072     A.U. after    1 cycles
    -- Stationary point found.
 Normal termination of Gaussian 09 at Thu Jul 12 21:27:28 2018.

 ----------------------------------------------------------------------
 #N Geom=AllCheck Guess=TCheck SCRF=Check Test GenChk RM062X/ChkBas Fre
 q
 ----------------------------------------------------------------------

 Structure from the checkpoint file:  "aryl_urea_Cl_CF3.M062X.SMD.h2o.opt.chk"
 ----------------------------------
 aryl_urea_Cl_CF3.M062X.SMD.h2o.opt
 ----------------------------------
 Charge =  0 Multiplicity = 1

                         Standard orientation:
 ---------------------------------------------------------------------
 Center     Atomic      Atomic             Coordinates (Angstroms)
 Number     Number       Type             X           Y           Z
 ---------------------------------------------------------------------
      1          6           0       -3.005015    0.474825   -0.014390
      2          6           0       -2.389540    1.723670   -0.009834
      3          6           0       -1.013935    1.870835    0.019987
      4          6           0       -0.189934    0.732175    0.051260
      5          6           0       -0.779898   -0.536446    0.053819
      6          6           0       -2.170081   -0.634178    0.018376
      7          1           0       -4.084361    0.380247   -0.040922
      8          7           0        1.186374    0.959038    0.100535
      9          6           0        2.202191    0.032939   -0.039908
     10          7           0        3.448094    0.544636    0.039253
     11          8           0        1.992920   -1.173915   -0.233869
     12          6           0        4.619611   -0.320978   -0.028988
     13          6           0        5.893893    0.505686    0.048988
     14          6           0        7.130071   -0.386014   -0.006883
     15          1           0       -0.568472    2.861594    0.019758
     16          1           0       -0.171795   -1.429832    0.086644
     17          1           0        1.462927    1.933401    0.177182
     18          1           0        3.583099    1.521980    0.274015
     19          1           0        4.593327   -0.884976   -0.967782
     20          1           0        4.590254   -1.047105    0.792849
     21          1           0        5.892142    1.085878    0.980111
     22          1           0        5.910116    1.223266   -0.780223
     23          1           0        7.139780   -1.094488    0.828693
     24          1           0        8.046024    0.209815    0.045586
     25          1           0        7.155139   -0.962343   -0.938283
     26         17           0       -3.388772    3.155156   -0.047281
     27          6           0       -2.758393   -2.016575    0.019783
     28          9           0       -2.361361   -2.733344   -1.052065
     29          9           0       -4.100544   -2.014099    0.009277
     30          9           0       -2.377819   -2.724236    1.103380
 ---------------------------------------------------------------------

 SCF Done:  E(RM062X) =  -1370.55622072     A.U. after    1 cycles

 The electronic state is 1-A.
 Alpha  occ. eigenvalues -- -102.68190 -25.31079 -25.30666 -25.30650 -19.62605
 Alpha  occ. eigenvalues --  -14.80867 -14.78899 -10.81901 -10.69703 -10.63221
 Alpha  occ. eigenvalues --  -10.62668 -10.59436 -10.57755 -10.57745 -10.57708
 Alpha  occ. eigenvalues --  -10.57179 -10.54209 -10.52973  -9.82857  -7.55257
 Alpha  occ. eigenvalues --   -7.54602  -7.54582  -1.47424  -1.38272  -1.37804
 Alpha  occ. eigenvalues --   -1.18662  -1.06936  -1.03633  -1.00743  -0.95740
 Alpha  occ. eigenvalues --   -0.89701  -0.87628  -0.84749  -0.81785  -0.78298
 Alpha  occ. eigenvalues --   -0.74018  -0.72866  -0.69913  -0.69695  -0.68584
 Alpha  occ. eigenvalues --   -0.66530  -0.66329  -0.63116  -0.59528  -0.59200
 Alpha  occ. eigenvalues --   -0.57920  -0.57602  -0.56007  -0.55371  -0.53861
 Alpha  occ. eigenvalues --   -0.53774  -0.53191  -0.52462  -0.51772  -0.51423
 Alpha  occ. eigenvalues --   -0.50833  -0.49152  -0.48675  -0.46694  -0.45823
 Alpha  occ. eigenvalues --   -0.45799  -0.43879  -0.42447  -0.42017  -0.39959
 Alpha  occ. eigenvalues --   -0.39330  -0.38942  -0.38505  -0.36182  -0.33042
 Alpha  occ. eigenvalues --   -0.31927  -0.28311
 Alpha virt. eigenvalues --   -0.01104   0.00374   0.01111   0.02406   0.02874
 Alpha virt. eigenvalues --    0.03808   0.04045   0.04072   0.04800   0.05205
 Alpha virt. eigenvalues --    0.05664   0.05844   0.06168   0.07113   0.07478

 Mulliken charges:
               1
     1  C   -0.837814
     2  C    0.308452
     3  C   -0.925447
     4  C   -0.180663
     5  C    0.128899
     6  C   -0.177965
     7  H    0.291364
     8  N   -0.641181
     9  C    0.792605
    10  N   -0.686177
    11  O   -0.752943
    12  C   -0.183574
    13  C   -0.380594
    14  C   -0.742233
    15  H    0.281617
    16  H    0.299380
    17  H    0.499582
    18  H    0.484696
    19  H    0.240012
    20  H    0.236028
    21  H    0.233704
    22  H    0.235294
    23  H    0.222748
    24  H    0.223815
    25  H    0.222273
    26  Cl   0.189601
    27  C    1.531298
    28  F   -0.283570
    29  F   -0.344532
    30  F   -0.284673
 Sum of Mulliken charges =  -0.00000

 Dipole moment (field-independent basis, Debye):
    X=              6.3732    Y=              7.6732    Z=              1.1633  Tot=             10.0423
 Quadrupole moment (field-independent basis, Debye-Ang):
   XX=            -94.4041   YY=           -115.4307   ZZ=           -115.5156
   XY=             11.7796   XZ=              2.9183   YZ=              0.2744

  Exact polarizability: 279.758 -13.384 239.138   1.851   1.829 144.613
 Approx polarizability: 224.329  -7.869 208.586   1.822   1.602 129.732

                      1                      2                      3
                      A                      A                      A
 Frequencies --     20.5376                30.5518                31.4399
 Red. masses --      5.0536                 6.6226                 3.5778
 Frc consts  --      0.0013                 0.0036                 0.0021
 IR Inten    --      0.3547                 2.7941                 5.8780

                      4                      5                      6
                      A                      A                      A
 Frequencies --     49.4742                55.9539                64.3828
 Red. masses --      3.3526                 5.0688                 3.7161
 Frc consts  --      0.0048                 0.0094                 0.0091
 IR Inten    --     24.7381                11.3144                13.4110

                      7                      8                      9
                      A                      A                      A
 Frequencies --    115.6567               120.8392               145.2429
 Red. masses --      8.6489                 7.1888                 2.8620
 Frc consts  --      0.0682                 0.0618                 0.0356
 IR Inten    --      0.3026                 1.0332                18.0796

                     10                     11                     12
                      A                      A                      A
 Frequencies --    162.6021               190.2651               226.6753
 Red. masses --      7.5714                 5.5856                 6.8888
 Frc consts  --      0.1179                 0.1191                 0.2085
 IR Inten    --      5.3988                 0.0993                 6.5039

                     13                     14                     15
                      A                      A                      A
 Frequencies --    236.7183               244.4841               253.4058
 Red. masses --      4.4703                 1.1404                 5.0197
 Frc consts  --      0.1476                 0.0402                 0.1899
 IR Inten    --      1.4142                 0.2159                 4.9473

                     16                     17                     18
                      A                      A                      A
 Frequencies --    318.7263               334.2328               334.5968
 Red. masses --     11.8717                 1.4505                 3.3982
 Frc consts  --      0.7106                 0.0955                 0.2242
 IR Inten    --      2.5877                65.4298                26.0052

                     19                     20                     21
                      A                      A                      A
 Frequencies --    348.2338               357.2077               446.7189
 Red. masses --      4.8340                 6.5119                 9.0722
 Frc consts  --      0.3454                 0.4896                 1.0667
 IR Inten    --     15.6462                12.7658                13.4018

                     22                     23                     24
                      A                      A                      A
 Frequencies --    449.9363               477.4253               511.6509
 Red. masses --      4.4347                 6.0966                 7.7182
 Frc consts  --      0.5290                 0.8187                 1.1905
 IR Inten    --      7.1184                 2.6315                 3.0092

                     25                     26                     27
                      A                      A                      A
 Frequencies --    518.8102               576.8495               596.9599
 Red. masses --      1.2222                 5.5883                10.0238
 Frc consts  --      0.1938                 1.0956                 2.1046
 IR Inten    --    250.4148                 3.8265                 0.5261

                     28                     29                     30
                      A                      A                      A
 Frequencies --    647.5156               650.4480               705.9880
 Red. masses --      5.0871                 6.0672                 2.7280
 Frc consts  --      1.2567                 1.5124                 0.8011
 IR Inten    --      5.7536                26.5496                36.1796

                     31                     32                     33
                      A                      A                      A
 Frequencies --    707.1023               758.9387               769.9230
 Red. masses --      8.9973                 1.5703                 2.4040
 Frc consts  --      2.6505                 0.5329                 0.8396
 IR Inten    --     56.0287                22.4436                 4.2602

                     34                     35                     36
                      A                      A                      A
 Frequencies --    794.0246               850.8979               886.3561
 Red. masses --      7.2481                11.2579                 1.5435
 Frc consts  --      2.6924                 4.8024                 0.7145
 IR Inten    --      6.1069                71.2690                86.4292

                     37                     38                     39
                      A                      A                      A
 Frequencies --    907.9918               912.3616               925.3177
 Red. masses --      1.1521                 1.5338                 1.3628
 Frc consts  --      0.5596                 0.7523                 0.6875
 IR Inten    --      2.6059                51.3194                 2.7177

                     40                     41                     42
                      A                      A                      A
 Frequencies --    929.0271               970.0940              1012.1243
 Red. masses --      1.8170                 5.0404                 5.9597
 Frc consts  --      0.9240                 2.7948                 3.5970
 IR Inten    --      0.6265                64.8610                13.2410

                     43                     44                     45
                      A                      A                      A
 Frequencies --   1054.2874              1088.3736              1138.9344
 Red. masses --      4.1526                 2.6003                 2.2390
 Frc consts  --      2.7195                 1.8148                 1.7112
 IR Inten    --     26.7926                24.8001                64.6221

                     46                     47                     48
                      A                      A                      A
 Frequencies --   1151.0204              1159.2351              1167.3468
 Red. masses --      2.4211                12.5444                 1.8920
 Frc consts  --      1.8899                 9.9322                 1.5190
 IR Inten    --     29.3317               447.3438                 0.9341

                     49                     50                     51
                      A                      A                      A
 Frequencies --   1175.2391              1182.1635              1204.7829
 Red. masses --      2.8957                 1.6657                 5.0753
 Frc consts  --      2.3565                 1.3715                 4.3404
 IR Inten    --      3.3400                 0.7207               464.1036

                     52                     53                     54
                      A                      A                      A
 Frequencies --   1266.2026              1280.5659              1285.7840
 Red. masses --      1.7596                 1.4231                 1.6829
 Frc consts  --      1.6622                 1.3750                 1.6392
 IR Inten    --    357.5505                15.9094               139.4539

                     55                     56                     57
                      A                      A                      A
 Frequencies --   1312.5579              1328.9730              1342.4262
 Red. masses --      1.6871                 1.0732                 2.1031
 Frc consts  --      1.7125                 1.1168                 2.2330
 IR Inten    --    126.1635                 2.6342               210.1619

                     58                     59                     60
                      A                      A                      A
 Frequencies --   1353.7083              1395.8509              1422.2499
 Red. masses --      1.7771                 5.1086                 1.2879
 Frc consts  --      1.9187                 5.8645                 1.5349
 IR Inten    --    186.0657               317.6286                 1.1892

                     61                     62                     63
                      A                      A                      A
 Frequencies --   1430.5934              1484.3416              1492.2103
 Red. masses --      1.6255                 3.8228                 1.0586
 Frc consts  --      1.9600                 4.9625                 1.3888
 IR Inten    --      7.8090               186.1824                15.0349

                     64                     65                     66
                      A                      A                      A
 Frequencies --   1503.7262              1512.6861              1516.3069
 Red. masses --      1.0395                 1.1612                 2.7945
 Frc consts  --      1.3849                 1.5655                 3.7855
 IR Inten    --     11.8405               129.7210               523.5271

                     67                     68                     69
                      A                      A                      A
 Frequencies --   1531.4254              1564.6747              1604.8761
 Red. masses --      1.0950                 2.1805                 2.3241
 Frc consts  --      1.5130                 3.1452                 3.5269
 IR Inten    --     30.3314               653.0580               831.4082

                     70                     71                     72
                      A                      A                      A
 Frequencies --   1671.4231              1692.8899              1707.8133
 Red. masses --      7.5815                 5.0398                 4.0179
 Frc consts  --     12.4789                 8.5099                 6.9045
 IR Inten    --    229.1819                 5.8130               777.0255

                     73                     74                     75
                      A                      A                      A
 Frequencies --   3073.6753              3077.8601              3080.6245
 Red. masses --      1.0603                 1.0384                 1.0581
 Frc consts  --      5.9018                 5.7958                 5.9162
 IR Inten    --      7.6011                16.7779               112.8720

                     76                     77                     78
                      A                      A                      A
 Frequencies --   3108.1533              3127.6756              3148.3082
 Red. masses --      1.1020                 1.1067                 1.1039
 Frc consts  --      6.2725                 6.3784                 6.4469
 IR Inten    --      2.7891                51.4571                94.1195

                     79                     80                     81
                      A                      A                      A
 Frequencies --   3157.9494              3240.0071              3270.8636
 Red. masses --      1.1023                 1.0936                 1.0937
 Frc consts  --      6.4770                 6.7641                 6.8940
 IR Inten    --     47.7102                 1.5173                 8.7788

                     82                     83                     84
                      A                      A                      A
 Frequencies --   3300.9377              3585.6137              3620.9226
 Red. masses --      1.0925                 1.0791                 1.0798
 Frc consts  --      7.0134                 8.1739                 8.3414
 IR Inten    --     22.3666                99.4484               195.8260

 - Thermochemistry -
 -------------------
 Temperature   298.150 Kelvin.  Pressure   1.00000 Atm.
 Atom     1 has atomic number  6 and mass  12.00000

 Molecular mass:   280.05903 amu.
 Principal axes and moments of inertia in atomic units:
                           1         2         3
     Eigenvalues --  3465.64267********************
           X            0.99999  -0.00537   0.00045
           Y            0.00537   0.99998   0.00128
           Z           -0.00045  -0.00128   1.00000
 This molecule is an asymmetric top.
 Rotational symmetry number  1.
 Warning -- assumption of classical behavior for rotation
           may cause significant error
 Rotational temperatures (Kelvin)      0.02499     0.00753     0.00593
 Rotational constants (GHZ):           0.52075     0.15682     0.12349
 Zero-point vibrational energy     594920.5 (Joules/Mol)
                                  142.18942 (Kcal/Mol)
 Warning -- explicit consideration of  27 degrees of freedom as
           vibrations may cause significant error
 Vibrational temperatures:     29.55    43.96    45.24    71.18    80.51
          (Kelvin)             92.63   166.40   173.86   208.97   233.95
                              273.75   326.13   340.58   351.76   364.59
                              458.58   480.89   481.41   501.03   513.94
                              642.73   647.36   686.91   736.15   746.45
                              829.96   858.89   931.63   935.85  1015.76
                             1017.36  1091.94  1107.75  1142.42  1224.25
                             1275.27  1306.40  1312.68  1331.32  1336.66
                             1395.75  1456.22  1516.88  1565.92  1638.67
                             1656.06  1667.88  1679.55  1690.90  1700.87
                             1733.41  1821.78  1842.45  1849.95  1888.48
                             1912.09  1931.45  1947.68  2008.32  2046.30
                             2058.30  2135.63  2146.96  2163.52  2176.42
                             2181.62  2203.38  2251.22  2309.06  2404.80
                             2435.69  2457.16  4422.33  4428.35  4432.33
                             4471.93  4500.02  4529.71  4543.58  4661.64
                             4706.04  4749.31  5158.89  5209.69

 Zero-point correction=                           0.226593 (Hartree/Particle)
 Thermal correction to Energy=                    0.244671
 Thermal correction to Enthalpy=                  0.245615
 Thermal correction to Gibbs Free Energy=         0.176818
 Sum of electronic and zero-point Energies=          -1370.329627
 Sum of electronic and thermal Energies=             -1370.311550
 Sum of electronic and thermal Enthalpies=           -1370.310606
 Sum of electronic and thermal Free Energies=        -1370.379403

                     E (Thermal)             CV                S
                      KCal/Mol        Cal/Mol-Kelvin    Cal/Mol-Kelvin
 Total                  153.533             64.557            144.796
 Electronic               0.000              0.000              0.000
 Translational            0.889              2.981             42.788
 Rotational               0.889              2.981             34.721
 Vibrational            151.756             58.595             67.288
 Vibration     1          0.593              1.986              6.582
 Vibration     2          0.594              1.984              5.793
 Vibration     3          0.594              1.983              5.736
 Vibration     4          0.595              1.978              4.838
 Vibration     5          0.596              1.975              4.595
 Vibration     6          0.597              1.971              4.318
 Vibration     7          0.608              1.936              3.172
 Vibration     8          0.609              1.932              3.087
 Vibration     9          0.617              1.908              2.734
 Vibration    10          0.623              1.888              2.519
 Vibration    11          0.634              1.853              2.225
 Vibration    12          0.650              1.800              1.905
 Vibration    13          0.656              1.785              1.827
 Vibration    14          0.660              1.772              1.770
 Vibration    15          0.665              1.757              1.707
 Vibration    16          0.705              1.638              1.317
 Vibration    17          0.716              1.607              1.240
 Vibration    18          0.716              1.606              1.238
 Vibration    19          0.726              1.579              1.174
 Vibration    20          0.732              1.560              1.134
 Vibration    21          0.806              1.368              0.806
 Vibration    22          0.809              1.361              0.796
 Vibration    23          0.834              1.300              0.717
 Vibration    24          0.867              1.224              0.630
 Vibration    25          0.874              1.208              0.613
 Vibration    26          0.933              1.081              0.491
 Vibration    27          0.955              1.038              0.455

 Optimization completed.
    -- Stationary point found.
 Normal termination of Gaussian 09 at Thu Jul 12 22:10:32 2018.
