 Gaussian 09, Revision E.01,

 ----------------------------------------------------------------------
 # M062X/Gen 6D SCF=Tight INT(grid=ultrafine) OPT IOP(2/17=4) SCRF=(SMD
 ,Solvent=h2o) maxdisk=2147483648
 ----------------------------------------------------------------------

 ------------
 diph.smd.h2o
 ------------
 Symbolic Z-matrix:
 Charge =  0 Multiplicity = 1

 SCF Done:  E(RM062X) =  -687.032367488     A.U. after   13 cycles
 SCF Done:  E(RM062X) =  -687.074852774     A.U. after   12 cycles
 SCF Done:  E(RM062X) =  -687.087030259     A.U. after   12 cycles
 SCF Done:  E(RM062X) =  -687.089896417     A.U. after   12 cycles
 SCF Done:  E(RM062X) =  -687.089073086     A.U. after   12 cycles
 SCF Done:  E(RM062X) =  -687.090776594     A.U. after    8 cycles
 SCF Done:  E(RM062X) =  -687.091558019     A.U. after   10 cycles
 SCF Done:  E(RM062X) =  -687.091786718     A.U. after   11 cycles
 SCF Done:  E(RM062X) =  -687.091745241     A.U. after   11 cycles
 SCF Done:  E(RM062X) =  -687.091882406     A.U. after   11 cycles
 SCF Done:  E(RM062X) =  -687.091981694     A.U. after   11 cycles
 SCF Done:  E(RM062X) =  -687.092000813     A.U. after   10 cycles
 SCF Done:  E(RM062X) =  -687.092003960     A.U. after   10 cycles
 SCF Done:  E(RM062X) =  -687.092006935     A.U. after    9 cycles
 SCF Done:  E(RM062X) =  -687.092008258     A.U. after   10 cycles
 SCF Done:  E(RM062X) =  -687.092009223     A.U. after    8 cycles
 SCF Done:  E(RM062X) =  -687.092009517     A.U. after    8 cycles
 SCF Done:  E(RM062X) =  -687.092009679     A.U. after    8 cycles
 SCF Done:  E(RM062X) =  -687.092009736     A.U. after    6 cycles
 Optimization completed.
    -- Stationary point found.
 Normal termination of Gaussian 09 at Tue Aug 21 19:22:13 2018.
 Gaussian 09:  ES64L-G09RevE.01 30-Nov-2015

 ----------------------------------------------------------------------
 # M062X/Gen 6D SCF=Tight INT(grid=ultrafine) Freq=Noraman SCRF=(SMD,So
 lvent=h2o) geom=check guess=read IOP(2/17=4) maxdisk=2147483648
 ----------------------------------------------------------------------

 ------------
 diph.smd.h2o
 ------------
 Structure from the checkpoint file:  "diph.smd.h2o.chk"
 Charge =  0 Multiplicity = 1

                         Standard orientation:
 ---------------------------------------------------------------------
 Center     Atomic      Atomic             Coordinates (Angstroms)
 Number     Number       Type             X           Y           Z
 ---------------------------------------------------------------------
      1          6           0       -5.133995   -0.396192   -0.304355
      2          6           0       -4.748756    0.943518   -0.295479
      3          6           0       -4.176957   -1.379063   -0.064619
      4          6           0       -2.847428   -1.044051    0.182006
      5          6           0       -2.462351    0.300928    0.169457
      6          6           0       -3.423174    1.291683   -0.065003
      7          7           0       -1.146276    0.726873    0.438116
      8          6           0        0.001620    0.030031    0.148649
      9          8           0        0.006925   -1.122676   -0.280188
     10          7           0        1.144731    0.747309    0.408522
     11          6           0        2.461489    0.314226    0.155370
     12          6           0        2.850425   -1.026538    0.247500
     13          6           0        4.179692   -1.372727    0.017320
     14          6           0        5.132796   -0.403021   -0.285037
     15          6           0        4.743750    0.933594   -0.356030
     16          6           0        3.417654    1.291680   -0.142355
     17          1           0       -6.167456   -0.669306   -0.490790
     18          1           0       -5.480442    1.725268   -0.474496
     19          1           0       -4.464052   -2.426171   -0.056124
     20          1           0       -2.119350   -1.816108    0.388541
     21          1           0       -3.120089    2.335381   -0.066823
     22          1           0       -1.052052    1.714851    0.648850
     23          1           0        1.044995    1.743085    0.576427
     24          1           0        2.124527   -1.786143    0.503790
     25          1           0        4.470280   -2.416496    0.088644
     26          1           0        6.166531   -0.684030   -0.457756
     27          1           0        5.472686    1.704942   -0.584456
     28          1           0        3.111252    2.332448   -0.205321
 ---------------------------------------------------------------------

 SCF Done:  E(RM062X) =  -687.092009736     A.U. after    1 cycles

 The electronic state is 1-A.
 Alpha  occ. eigenvalues --  -19.61633 -14.79499 -14.79454 -10.69412 -10.59813
 Alpha  occ. eigenvalues --  -10.59780 -10.54949 -10.54946 -10.54857 -10.54854
 Alpha  occ. eigenvalues --  -10.54844 -10.54838 -10.54619 -10.54599 -10.54329
 Alpha  occ. eigenvalues --  -10.54325  -1.18134  -1.06143  -1.03820  -0.95466
 Alpha  occ. eigenvalues --   -0.94187  -0.85140  -0.84087  -0.84022  -0.81963
 Alpha  occ. eigenvalues --   -0.73216  -0.70214  -0.69472  -0.67521  -0.65394
 Alpha  occ. eigenvalues --   -0.62399  -0.61316  -0.59222  -0.56052  -0.54288
 Alpha  occ. eigenvalues --   -0.53873  -0.52000  -0.50593  -0.50058  -0.49544
 Alpha  occ. eigenvalues --   -0.49229  -0.48206  -0.47814  -0.45496  -0.43903
 Alpha  occ. eigenvalues --   -0.41736  -0.41665  -0.40190  -0.39993  -0.37486
 Alpha  occ. eigenvalues --   -0.36502  -0.35127  -0.30562  -0.30426  -0.28482
 Alpha  occ. eigenvalues --   -0.26056
 Alpha virt. eigenvalues --    0.02014   0.03419   0.03514   0.04847   0.11314
 Alpha virt. eigenvalues --    0.12913   0.14969   0.15232   0.18419   0.20534
 Alpha virt. eigenvalues --    0.21267   0.21609   0.21844   0.21923   0.22431

 Mulliken charges:
               1
     1  C   -0.195905
     2  C   -0.199220
     3  C   -0.206816
     4  C   -0.197426
     5  C    0.292905
     6  C   -0.233390
     7  N   -0.782276
     8  C    0.837732
     9  O   -0.622915
    10  N   -0.783316
    11  C    0.293445
    12  C   -0.196735
    13  C   -0.206662
    14  C   -0.195857
    15  C   -0.199602
    16  C   -0.232226
    17  H    0.194133
    18  H    0.199443
    19  H    0.197763
    20  H    0.201960
    21  H    0.205739
    22  H    0.415576
    23  H    0.415680
    24  H    0.201100
    25  H    0.197844
    26  H    0.194136
    27  H    0.199381
    28  H    0.205511
 Sum of Mulliken charges =  -0.00000

 Dipole moment (field-independent basis, Debye):
    X=             -0.0200    Y=              6.0158    Z=              1.4418  Tot=              6.1862
 Quadrupole moment (field-independent basis, Debye-Ang):
   XX=            -76.7892   YY=            -76.2239   ZZ=            -98.6097
   XY=             -0.1012   XZ=             -0.0867   YZ=             -0.5125

  Exact polarizability: 309.944  -0.712 233.337  -0.229  -5.430  75.354
 Approx polarizability: 248.244  -0.695 215.355  -0.169  -3.113  79.802

                      1                      2                      3
                      A                      A                      A
 Frequencies --     22.4998                28.5389                61.2437
 Red. masses --      3.7546                 5.0802                 6.5273
 Frc consts  --      0.0011                 0.0024                 0.0144
 IR Inten    --      0.0201                 0.1070                 7.9439

                      4                      5                      6
                      A                      A                      A
 Frequencies --     65.9509                99.0066               178.3512
 Red. masses --      5.8235                 5.5917                 4.6980
 Frc consts  --      0.0149                 0.0323                 0.0880
 IR Inten    --      1.4278                 9.5968                13.2384

                      7                      8                      9
                      A                      A                      A
 Frequencies --    239.8569               249.0091               281.7095
 Red. masses --      5.2264                 5.7339                 5.1312
 Frc consts  --      0.1772                 0.2095                 0.2399
 IR Inten    --      0.3426                 0.7524                 8.3909

                     10                     11                     12
                      A                      A                      A
 Frequencies --    369.4236               377.9651               419.9870
 Red. masses --      4.8665                 4.9440                 3.0268
 Frc consts  --      0.3913                 0.4161                 0.3146
 IR Inten    --     30.4620                 5.1131                 0.8891

                     13                     14                     15
                      A                      A                      A
 Frequencies --    420.2132               443.3184               517.9210
 Red. masses --      3.0417                 1.2349                 3.1267
 Frc consts  --      0.3165                 0.1430                 0.4942
 IR Inten    --      0.2853                56.8458                 0.1297

                     16                     17                     18
                      A                      A                      A
 Frequencies --    521.5250               530.2581               551.4025
 Red. masses --      3.0266                 6.4416                 1.2292
 Frc consts  --      0.4850                 1.0671                 0.2202
 IR Inten    --     27.5453                13.9449               356.2599

                     19                     20                     21
                      A                      A                      A
 Frequencies --    625.7382               627.2780               652.3714
 Red. masses --      6.1953                 6.3422                 6.4273
 Frc consts  --      1.4292                 1.4703                 1.6116
 IR Inten    --      0.7725                 1.8054                 8.7550

                     22                     23                     24
                      A                      A                      A
 Frequencies --    709.8096               711.7767               752.9703
 Red. masses --      2.3440                 2.2063                 6.8973
 Frc consts  --      0.6958                 0.6586                 2.3040
 IR Inten    --      2.3011                64.9539                 2.9966

                     25                     26                     27
                      A                      A                      A
 Frequencies --    769.3736               780.2125               808.2838
 Red. masses --      1.7578                 1.6761                 4.5392
 Frc consts  --      0.6131                 0.6011                 1.7473
 IR Inten    --     18.9239               187.6037                 1.0162

                     28                     29                     30
                      A                      A                      A
 Frequencies --    835.9062               863.5372               865.4612
 Red. masses --      4.9066                 1.2580                 1.2546
 Frc consts  --      2.0200                 0.5527                 0.5537
 IR Inten    --     13.4014                 0.2541                 0.3811

                     31                     32                     33
                      A                      A                      A
 Frequencies --    919.8116               933.0382               936.6955
 Red. masses --      3.1228                 1.4542                 1.7091
 Frc consts  --      1.5567                 0.7459                 0.8835
 IR Inten    --      3.0155                 2.7130                14.4651

                     34                     35                     36
                      A                      A                      A
 Frequencies --    998.2752               998.7071              1015.7543
 Red. masses --      1.3441                 1.3429                 5.6378
 Frc consts  --      0.7892                 0.7892                 3.4272
 IR Inten    --      0.0640                 0.0788                 0.0416

                     37                     38                     39
                      A                      A                      A
 Frequencies --   1016.5158              1021.3015              1021.3728
 Red. masses --      5.5993                 1.2670                 1.2652
 Frc consts  --      3.4089                 0.7786                 0.7776
 IR Inten    --      0.0040                 0.4148                 0.5974

                     40                     41                     42
                      A                      A                      A
 Frequencies --   1063.5360              1067.9764              1085.0753
 Red. masses --      2.8591                 2.0951                 2.5321
 Frc consts  --      1.9054                 1.4079                 1.7565
 IR Inten    --      0.8757                17.9842                 4.1109

                     43                     44                     45
                      A                      A                      A
 Frequencies --   1118.8892              1128.3025              1171.9548
 Red. masses --      1.4548                 1.6464                 1.0886
 Frc consts  --      1.0731                 1.2349                 0.8810
 IR Inten    --      0.3034                20.0544                 0.8253

                     46                     47                     48
                      A                      A                      A
 Frequencies --   1172.2898              1199.4977              1199.9020
 Red. masses --      1.0879                 1.1092                 1.1104
 Frc consts  --      0.8808                 0.9403                 0.9419
 IR Inten    --      1.5151                 7.4725                 6.1971

                     49                     50                     51
                      A                      A                      A
 Frequencies --   1255.7098              1273.6046              1316.6334
 Red. masses --      2.0086                 3.3559                 3.1220
 Frc consts  --      1.8661                 3.2072                 3.1887
 IR Inten    --    593.3691               124.5574                16.2213

                     52                     53                     54
                      A                      A                      A
 Frequencies --   1349.5134              1353.2601              1359.0038
 Red. masses --      2.4981                 1.5715                 2.0159
 Frc consts  --      2.6804                 1.6956                 2.1936
 IR Inten    --    429.1905                 1.4877                 6.5317

                     55                     56                     57
                      A                      A                      A
 Frequencies --   1368.3146              1492.0598              1495.0007
 Red. masses --      3.6927                 2.2210                 2.4514
 Frc consts  --      4.0735                 2.9132                 3.2281
 IR Inten    --      2.6374                64.1644               390.5898

                     58                     59                     60
                      A                      A                      A
 Frequencies --   1551.5719              1557.1124              1581.1241
 Red. masses --      2.5110                 2.5261                 2.1640
 Frc consts  --      3.5615                 3.6086                 3.1874
 IR Inten    --    450.1075                 6.2231              1528.8497

                     61                     62                     63
                      A                      A                      A
 Frequencies --   1609.5484              1681.9095              1688.9452
 Red. masses --      1.9805                 5.4651                 6.4755
 Frc consts  --      3.0229                 9.1086                10.8832
 IR Inten    --     45.5860               115.7479                33.0581

                     64                     65                     66
                      A                      A                      A
 Frequencies --   1692.8896              1693.0396              1761.8900
 Red. masses --      4.4184                 5.1391                 4.7252
 Frc consts  --      7.4606                 8.6790                 8.6422
 IR Inten    --     54.7884                61.2400               469.3613

                     67                     68                     69
                      A                      A                      A
 Frequencies --   3224.0008              3224.0463              3232.4495
 Red. masses --      1.0892                 1.0890                 1.0890
 Frc consts  --      6.6702                 6.6693                 6.7042
 IR Inten    --      8.9419                 6.0743                 2.0360

                     70                     71                     72
                      A                      A                      A
 Frequencies --   3234.1143              3240.0402              3240.9551
 Red. masses --      1.0887                 1.0937                 1.0937
 Frc consts  --      6.7092                 6.7645                 6.7688
 IR Inten    --      0.8879                18.4334                20.6395

                     73                     74                     75
                      A                      A                      A
 Frequencies --   3252.9529              3253.3509              3289.5654
 Red. masses --      1.0980                 1.0981                 1.0929
 Frc consts  --      6.8457                 6.8481                 6.9681
 IR Inten    --     17.4417                15.1974                 0.1481

                     76                     77                     78
                      A                      A                      A
 Frequencies --   3295.2985              3585.4552              3615.4256
 Red. masses --      1.0928                 1.0797                 1.0783
 Frc consts  --      6.9918                 8.1775                 8.3046
 IR Inten    --      0.0863                 1.1844               254.5893

 - Thermochemistry -
 -------------------
 Temperature   298.150 Kelvin.  Pressure   1.00000 Atm.
 Atom     1 has atomic number  6 and mass  12.00000

 Molecular mass:   212.09496 amu.
 Principal axes and moments of inertia in atomic units:
                           1         2         3
     Eigenvalues --   827.075268833.499649549.46961
           X            1.00000  -0.00006  -0.00000
           Y            0.00006   0.99998  -0.00681
           Z            0.00000   0.00681   0.99998
 This molecule is an asymmetric top.
 Rotational symmetry number  1.
 Warning -- assumption of classical behavior for rotation
           may cause significant error
 Rotational temperatures (Kelvin)      0.10472     0.00981     0.00907
 Rotational constants (GHZ):           2.18208     0.20431     0.18899
 Zero-point vibrational energy     599440.2 (Joules/Mol)
                                  143.26965 (Kcal/Mol)
 Warning -- explicit consideration of  18 degrees of freedom as
           vibrations may cause significant error
 Vibrational temperatures:     32.37    41.06    88.12    94.89   142.45
          (Kelvin)            256.61   345.10   358.27   405.32   531.52
                              543.81   604.27   604.59   637.84   745.17
                              750.36   762.92   793.34   900.30   902.51
                              938.62  1021.26  1024.09  1083.36  1106.96
                             1122.55  1162.94  1202.68  1242.44  1245.20
                             1323.40  1342.43  1347.69  1436.29  1436.92
                             1461.44  1462.54  1469.42  1469.53  1530.19
                             1536.58  1561.18  1609.83  1623.37  1686.18
                             1686.66  1725.81  1726.39  1806.68  1832.43
                             1894.34  1941.65  1947.04  1955.30  1968.70
                             2146.74  2150.97  2232.36  2240.33  2274.88
                             2315.78  2419.89  2430.01  2435.69  2435.90
                             2534.96  4638.61  4638.68  4650.77  4653.16
                             4661.69  4663.01  4680.27  4680.84  4732.94
                             4741.19  5158.66  5201.78

 Zero-point correction=                           0.228315 (Hartree/Particle)
 Thermal correction to Energy=                    0.241471
 Thermal correction to Enthalpy=                  0.242415
 Thermal correction to Gibbs Free Energy=         0.186164
 Sum of electronic and zero-point Energies=           -686.863695
 Sum of electronic and thermal Energies=              -686.850539
 Sum of electronic and thermal Enthalpies=            -686.849595
 Sum of electronic and thermal Free Energies=         -686.905846

                     E (Thermal)             CV                S
                      KCal/Mol        Cal/Mol-Kelvin    Cal/Mol-Kelvin
 Total                  151.525             51.288            118.390
 Electronic               0.000              0.000              0.000
 Translational            0.889              2.981             41.959
 Rotational               0.889              2.981             32.612
 Vibrational            149.748             45.327             43.819
 Vibration     1          0.593              1.985              6.400
 Vibration     2          0.593              1.984              5.928
 Vibration     3          0.597              1.973              4.417
 Vibration     4          0.597              1.971              4.271
 Vibration     5          0.604              1.950              3.474
 Vibration     6          0.629              1.869              2.346
 Vibration     7          0.657              1.779              1.804
 Vibration     8          0.662              1.764              1.738
 Vibration     9          0.681              1.707              1.523
 Vibration    10          0.742              1.535              1.082
 Vibration    11          0.748              1.517              1.047
 Vibration    12          0.783              1.427              0.892
 Vibration    13          0.783              1.426              0.891
 Vibration    14          0.803              1.376              0.816
 Vibration    15          0.873              1.210              0.615
 Vibration    16          0.876              1.202              0.606
 Vibration    17          0.885              1.183              0.587
 Vibration    18          0.907              1.137              0.541

 Optimization completed.
    -- Stationary point found.
 Normal termination of Gaussian 09 at Tue Aug 21 19:51:40 2018.
