 Gaussian 09, Revision E.01,

 ----------------------------------------------------------------------
 # M062X/Gen 6D SCF=Tight INT(grid=ultrafine) OPT IOP(2/17=4) Freq=Nora
 man SCRF=(SMD,Solvent=h2o) maxdisk=2147483648
 ----------------------------------------------------------------------

 -------------------------
 diph_a1.M062X.SMD.h2o.opt
 -------------------------
 Symbolic Z-matrix:
 Charge = -1 Multiplicity = 1

 SCF Done:  E(RM062X) =  -686.595387517     A.U. after   15 cycles
 SCF Done:  E(RM062X) =  -686.628399958     A.U. after   15 cycles
 SCF Done:  E(RM062X) =  -686.631813473     A.U. after   14 cycles
 SCF Done:  E(RM062X) =  -686.632265483     A.U. after   15 cycles
 SCF Done:  E(RM062X) =  -686.633818286     A.U. after   13 cycles
 SCF Done:  E(RM062X) =  -686.633857942     A.U. after   11 cycles
 SCF Done:  E(RM062X) =  -686.633862204     A.U. after   11 cycles
 SCF Done:  E(RM062X) =  -686.633862540     A.U. after    9 cycles
 SCF Done:  E(RM062X) =  -686.633862586     A.U. after    8 cycles
 SCF Done:  E(RM062X) =  -686.633862897     A.U. after    9 cycles
 SCF Done:  E(RM062X) =  -686.635014841     A.U. after   10 cycles
 SCF Done:  E(RM062X) =  -686.635015765     A.U. after   11 cycles
 SCF Done:  E(RM062X) =  -686.635017161     A.U. after   12 cycles
 SCF Done:  E(RM062X) =  -686.635016106     A.U. after   12 cycles
 SCF Done:  E(RM062X) =  -686.635016511     A.U. after   11 cycles
 SCF Done:  E(RM062X) =  -686.635016277     A.U. after   10 cycles
 SCF Done:  E(RM062X) =  -686.635016230     A.U. after    9 cycles
 Optimization completed.
    -- Stationary point found.
 Normal termination of Gaussian 09 at Tue Aug 21 17:41:12 2018.

 ----------------------------------------------------------------------
 #N Geom=AllCheck Guess=TCheck SCRF=Check Test GenChk RM062X/ChkBas Fre
 q
 ----------------------------------------------------------------------

 Structure from the checkpoint file:  "diph_a1.M062X.SMD.h2o.opt.chk"
 -------------------------
 diph_a1.M062X.SMD.h2o.opt
 -------------------------
 Charge = -1 Multiplicity = 1

 SCF Done:  E(RM062X) =  -686.635016230     A.U. after    1 cycles
 Optimization completed.
 Normal termination of Gaussian 09 at Tue Aug 21 18:16:19 2018.
 Gaussian 09:  ES64L-G09RevE.01 30-Nov-2015

 ----------------------------------------------------------------------
 # M062X/Gen 6D SCF=Tight INT(grid=ultrafine) OPT IOP(2/17=4) Freq=Nora
 man SCRF=(SMD,Solvent=h2o) geom=check guess=read IOP(2/17=4) maxdisk=2
 147483648
 ----------------------------------------------------------------------

 -------------------------
 diph_a1.M062X.SMD.h2o.opt
 -------------------------
 Structure from the checkpoint file:  "diph_a1.M062X.SMD.h2o.opt.chk"
 Charge = -1 Multiplicity = 1

 SCF Done:  E(RM062X) =  -686.635016230     A.U. after    1 cycles
    -- Stationary point found.
 Normal termination of Gaussian 09 at Tue Aug 21 18:17:09 2018.

 ----------------------------------------------------------------------
 #N Geom=AllCheck Guess=TCheck SCRF=Check Test GenChk RM062X/ChkBas Fre
 q
 ----------------------------------------------------------------------

 Structure from the checkpoint file:  "diph_a1.M062X.SMD.h2o.opt.chk"
 -------------------------
 diph_a1.M062X.SMD.h2o.opt
 -------------------------
 Charge = -1 Multiplicity = 1

                         Standard orientation:
 ---------------------------------------------------------------------
 Center     Atomic      Atomic             Coordinates (Angstroms)
 Number     Number       Type             X           Y           Z
 ---------------------------------------------------------------------
      1          6           0        5.122289   -0.492148   -0.114328
      2          6           0        4.784543    0.681588    0.562686
      3          6           0        4.110478   -1.209107   -0.757674
      4          6           0        2.787594   -0.773217   -0.719021
      5          6           0        2.425614    0.404116   -0.027659
      6          6           0        3.463327    1.121747    0.601618
      7          7           0        1.141965    0.944860   -0.012715
      8          6           0        0.097682    0.132110    0.113530
      9          8           0        0.078085   -1.104505    0.377615
     10          7           0       -1.123217    0.810552   -0.034789
     11          6           0       -2.428458    0.324717   -0.007697
     12          6           0       -2.807380   -0.927117    0.507805
     13          6           0       -4.151556   -1.302947    0.507474
     14          6           0       -5.144343   -0.459290    0.012462
     15          6           0       -4.770736    0.789146   -0.491427
     16          6           0       -3.436084    1.175331   -0.504232
     17          1           0        6.151594   -0.837042   -0.146698
     18          1           0        5.555115    1.261292    1.065034
     19          1           0        4.353416   -2.118154   -1.302875
     20          1           0        2.021354   -1.337701   -1.241150
     21          1           0        3.211649    2.040193    1.126851
     22          1           0       -1.023533    1.769718   -0.345415
     23          1           0       -2.059426   -1.596597    0.908105
     24          1           0       -4.419318   -2.275990    0.911175
     25          1           0       -6.186269   -0.764155    0.020591
     26          1           0       -5.522762    1.469084   -0.882620
     27          1           0       -3.155545    2.147947   -0.902626
 ---------------------------------------------------------------------

 SCF Done:  E(RM062X) =  -686.635016230     A.U. after    1 cycles

 The electronic state is 1-A.
 Alpha  occ. eigenvalues --  -19.59254 -14.77447 -14.70929 -10.65280 -10.59673
 Alpha  occ. eigenvalues --  -10.57440 -10.55082 -10.54970 -10.54646 -10.54478
 Alpha  occ. eigenvalues --  -10.54474 -10.54226 -10.54186 -10.53798 -10.53618
 Alpha  occ. eigenvalues --  -10.53564  -1.13896  -1.03015  -0.98865  -0.94554
 Alpha  occ. eigenvalues --   -0.92522  -0.83891  -0.83743  -0.83029  -0.80361
 Alpha  occ. eigenvalues --   -0.71227  -0.69136  -0.67762  -0.66266  -0.62815
 Alpha  occ. eigenvalues --   -0.59853  -0.58147  -0.55443  -0.54370  -0.51627
 Alpha  occ. eigenvalues --   -0.51183  -0.50212  -0.49667  -0.48799  -0.47815
 Alpha  occ. eigenvalues --   -0.47385  -0.47141  -0.44526  -0.43269  -0.41639
 Alpha  occ. eigenvalues --   -0.41193  -0.39668  -0.39073  -0.36791  -0.35634
 Alpha  occ. eigenvalues --   -0.32994  -0.30536  -0.30257  -0.29393  -0.26768
 Alpha  occ. eigenvalues --   -0.23174
 Alpha virt. eigenvalues --    0.01844   0.02192   0.02314   0.02889   0.03425
 Alpha virt. eigenvalues --    0.03749   0.04341   0.04457   0.04557   0.05218
 Alpha virt. eigenvalues --    0.05815   0.06092   0.06427   0.06941   0.07448

 Mulliken charges:
               1
     1  C   -0.288869
     2  C   -0.340268
     3  C   -0.488193
     4  C    0.198247
     5  C    0.122507
     6  C   -0.446440
     7  N   -0.624331
     8  C    0.773251
     9  O   -0.847056
    10  N   -0.660838
    11  C    0.017112
    12  C    0.602096
    13  C   -0.490835
    14  C   -0.237265
    15  C   -0.324534
    16  C   -0.801520
    17  H    0.230776
    18  H    0.233632
    19  H    0.233190
    20  H    0.229990
    21  H    0.225779
    22  H    0.470044
    23  H    0.257128
    24  H    0.238522
    25  H    0.236158
    26  H    0.241115
    27  H    0.240601
 Sum of Mulliken charges =  -1.00000

 Dipole moment (field-independent basis, Debye):
    X=             -4.0470    Y=              2.0045    Z=             -1.5444  Tot=              4.7730
 Quadrupole moment (field-independent basis, Debye-Ang):
   XX=           -104.8493   YY=            -97.3780   ZZ=           -101.5769
   XY=             -4.6090   XZ=              2.5162   YZ=              1.0138

  Exact polarizability: 387.893   4.143 251.786  11.372   0.984 169.290
 Approx polarizability: 292.329   2.601 218.632  10.020   0.566 148.574

                      1                      2                      3
                      A                      A                      A
 Frequencies --     11.0641                32.6956                57.7464
 Red. masses --      5.0442                 4.0224                 6.0933
 Frc consts  --      0.0004                 0.0025                 0.0120
 IR Inten    --      2.6666                 0.7353                 5.3456

                      4                      5                      6
                      A                      A                      A
 Frequencies --     78.5817               102.5080               175.4539
 Red. masses --      6.9763                 5.9959                 4.9214
 Frc consts  --      0.0254                 0.0371                 0.0893
 IR Inten    --     13.9535                 4.6549                 9.1176

                      7                      8                      9
                      A                      A                      A
 Frequencies --    230.6082               244.4308               280.9120
 Red. masses --      4.8544                 6.5710                 5.5112
 Frc consts  --      0.1521                 0.2313                 0.2562
 IR Inten    --      1.9466                 3.9524                10.6683

                     10                     11                     12
                      A                      A                      A
 Frequencies --    354.8903               412.1620               418.9867
 Red. masses --      6.7864                 5.7158                 3.1315
 Frc consts  --      0.5036                 0.5721                 0.3239
 IR Inten    --      2.8746                40.2413                 5.5236

                     13                     14                     15
                      A                      A                      A
 Frequencies --    423.5205               516.7231               521.8188
 Red. masses --      3.0393                 2.7233                 4.6114
 Frc consts  --      0.3212                 0.4284                 0.7398
 IR Inten    --      0.5048                 3.2071                43.6231

                     16                     17                     18
                      A                      A                      A
 Frequencies --    532.9159               539.8652               623.6587
 Red. masses --      2.0761                 1.4912                 6.2270
 Frc consts  --      0.3474                 0.2561                 1.4270
 IR Inten    --     40.6533               152.6105                 4.4677

                     19                     20                     21
                      A                      A                      A
 Frequencies --    625.0524               647.2830               705.8478
 Red. masses --      6.3742                 6.5458                 2.1031
 Frc consts  --      1.4673                 1.6159                 0.6174
 IR Inten    --      0.7940                 2.5067                56.3852

                     22                     23                     24
                      A                      A                      A
 Frequencies --    711.0435               753.4355               769.2236
 Red. masses --      2.0102                 2.8616                 2.0375
 Frc consts  --      0.5988                 0.9571                 0.7103
 IR Inten    --     63.7852               103.4269               178.8703

                     25                     26                     27
                      A                      A                      A
 Frequencies --    777.4672               808.2514               829.0736
 Red. masses --      3.6610                 3.6312                 5.1731
 Frc consts  --      1.3038                 1.3976                 2.0950
 IR Inten    --     70.1828                37.0831                18.6657

                     28                     29                     30
                      A                      A                      A
 Frequencies --    855.4759               861.6276               902.5547
 Red. masses --      1.2638                 1.2521                 3.6880
 Frc consts  --      0.5450                 0.5477                 1.7701
 IR Inten    --      0.8259                 3.6716                 3.5664

                     31                     32                     33
                      A                      A                      A
 Frequencies --    917.4513               929.3315              1000.6999
 Red. masses --      1.4982                 1.7682                 1.3576
 Frc consts  --      0.7430                 0.8998                 0.8010
 IR Inten    --     16.8599                18.0656                 0.0175

                     34                     35                     36
                      A                      A                      A
 Frequencies --   1001.3088              1006.1758              1006.3125
 Red. masses --      1.3515                 5.4057                 5.4849
 Frc consts  --      0.7984                 3.2244                 3.2725
 IR Inten    --      0.2651                11.9659                21.3310

                     37                     38                     39
                      A                      A                      A
 Frequencies --   1014.3601              1015.6885              1041.8676
 Red. masses --      1.2726                 1.2719                 5.7576
 Frc consts  --      0.7715                 0.7731                 3.6823
 IR Inten    --      0.5505                 0.8249               150.6042

                     40                     41                     42
                      A                      A                      A
 Frequencies --   1059.5927              1066.5772              1105.5774
 Red. masses --      2.1121                 1.9736                 1.4777
 Frc consts  --      1.3971                 1.3228                 1.0642
 IR Inten    --     13.3953                77.5544                14.4505

                     43                     44                     45
                      A                      A                      A
 Frequencies --   1114.4488              1164.1816              1165.9489
 Red. masses --      1.5169                 1.0850                 1.0799
 Frc consts  --      1.1100                 0.8664                 0.8650
 IR Inten    --     28.7414                 1.9092                 3.6499

                     46                     47                     48
                      A                      A                      A
 Frequencies --   1188.6842              1195.5933              1256.4710
 Red. masses --      1.1183                 1.1238                 2.8899
 Frc consts  --      0.9310                 0.9465                 2.6881
 IR Inten    --     25.4332                43.0722               210.5634

                     49                     50                     51
                      A                      A                      A
 Frequencies --   1269.4494              1314.0906              1340.6246
 Red. masses --      2.7310                 2.9630                 1.9249
 Frc consts  --      2.5930                 3.0146                 2.0383
 IR Inten    --    400.0425                48.3548               777.5828

                     52                     53                     54
                      A                      A                      A
 Frequencies --   1352.1783              1359.3762              1403.1007
 Red. masses --      1.8896                 3.1275                 5.5245
 Frc consts  --      2.0356                 3.4051                 6.4080
 IR Inten    --     37.5723               302.3033              1702.1835

                     55                     56                     57
                      A                      A                      A
 Frequencies --   1453.4173              1490.1511              1527.8287
 Red. masses --      2.1705                 2.4473                 2.3683
 Frc consts  --      2.7014                 3.2019                 3.2572
 IR Inten    --    167.3717                11.5651               587.5716

                     58                     59                     60
                      A                      A                      A
 Frequencies --   1534.6530              1547.2314              1593.8916
 Red. masses --      2.6333                 2.8863                 3.9546
 Frc consts  --      3.6541                 4.0710                 5.9193
 IR Inten    --    295.6083                 7.5824              1898.9675

                     61                     62                     63
                      A                      A                      A
 Frequencies --   1641.6850              1659.8014              1675.5863
 Red. masses --      5.9993                 5.6419                 5.9255
 Frc consts  --      9.5264                 9.1578                 9.8018
 IR Inten    --     28.7105                55.9211                95.9242

                     64                     65                     66
                      A                      A                      A
 Frequencies --   1680.7077              3207.0552              3209.0287
 Red. masses --      6.2062                 1.0866                 1.0892
 Frc consts  --     10.3291                 6.5848                 6.6085
 IR Inten    --    177.0651                18.9236                13.1123

                     67                     68                     69
                      A                      A                      A
 Frequencies --   3212.0974              3220.1719              3221.9983
 Red. masses --      1.0888                 1.0890                 1.0936
 Frc consts  --      6.6190                 6.6534                 6.6887
 IR Inten    --      4.1464                 5.4939                36.8432

                     70                     71                     72
                      A                      A                      A
 Frequencies --   3228.2932              3236.7924              3241.6689
 Red. masses --      1.0933                 1.0937                 1.0962
 Frc consts  --      6.7130                 6.7511                 6.7868
 IR Inten    --     24.4847                34.0193                 8.9452

                     73                     74                     75
                      A                      A                      A
 Frequencies --   3244.9323              3295.1812              3616.6199
 Red. masses --      1.0973                 1.0922                 1.0777
 Frc consts  --      6.8077                 6.9876                 8.3051
 IR Inten    --     19.7866                 0.7243                88.5335

 - Thermochemistry -
 -------------------
 Temperature   298.150 Kelvin.  Pressure   1.00000 Atm.
 Atom     1 has atomic number  6 and mass  12.00000

 Molecular mass:   211.08714 amu.
 Principal axes and moments of inertia in atomic units:
                           1         2         3
     Eigenvalues --   808.815268902.917969389.73030
           X            1.00000  -0.00094   0.00103
           Y            0.00094   0.99998   0.00579
           Z           -0.00104  -0.00579   0.99998
 This molecule is an asymmetric top.
 Rotational symmetry number  1.
 Warning -- assumption of classical behavior for rotation
           may cause significant error
 Rotational temperatures (Kelvin)      0.10709     0.00973     0.00922
 Rotational constants (GHZ):           2.23134     0.20271     0.19220
 Zero-point vibrational energy     561244.6 (Joules/Mol)
                                  134.14067 (Kcal/Mol)
 Warning -- explicit consideration of  17 degrees of freedom as
           vibrations may cause significant error
 Vibrational temperatures:     15.92    47.04    83.08   113.06   147.49
          (Kelvin)            252.44   331.79   351.68   404.17   510.61
                              593.01   602.83   609.35   743.45   750.78
                              766.75   776.74   897.30   899.31   931.29
                             1015.56  1023.03  1084.02  1106.74  1118.60
                             1162.89  1192.85  1230.84  1239.69  1298.57
                             1320.01  1337.10  1439.78  1440.66  1447.66
                             1447.86  1459.44  1461.35  1499.01  1524.52
                             1534.56  1590.68  1603.44  1675.00  1677.54
                             1710.25  1720.19  1807.78  1826.45  1890.68
                             1928.86  1945.48  1955.84  2018.75  2091.14
                             2143.99  2198.20  2208.02  2226.12  2293.25
                             2362.02  2388.08  2410.79  2418.16  4614.23
                             4617.07  4621.49  4633.10  4635.73  4644.79
                             4657.02  4664.03  4668.73  4741.02  5203.50

 Zero-point correction=                           0.213767 (Hartree/Particle)
 Thermal correction to Energy=                    0.226691
 Thermal correction to Enthalpy=                  0.227635
 Thermal correction to Gibbs Free Energy=         0.171307
 Sum of electronic and zero-point Energies=           -686.421249
 Sum of electronic and thermal Energies=              -686.408325
 Sum of electronic and thermal Enthalpies=            -686.407381
 Sum of electronic and thermal Free Energies=         -686.463709

                     E (Thermal)             CV                S
                      KCal/Mol        Cal/Mol-Kelvin    Cal/Mol-Kelvin
 Total                  142.251             50.148            118.551
 Electronic               0.000              0.000              0.000
 Translational            0.889              2.981             41.945
 Rotational               0.889              2.981             32.580
 Vibrational            140.473             44.187             44.026
 Vibration     1          0.593              1.987              7.810
 Vibration     2          0.594              1.983              5.659
 Vibration     3          0.596              1.974              4.533
 Vibration     4          0.600              1.964              3.926
 Vibration     5          0.605              1.947              3.406
 Vibration     6          0.627              1.873              2.376
 Vibration     7          0.652              1.794              1.874
 Vibration     8          0.660              1.772              1.770
 Vibration     9          0.681              1.709              1.528
 Vibration    10          0.731              1.565              1.144
 Vibration    11          0.776              1.444              0.919
 Vibration    12          0.782              1.429              0.895
 Vibration    13          0.786              1.419              0.880
 Vibration    14          0.872              1.213              0.618
 Vibration    15          0.877              1.202              0.606
 Vibration    16          0.888              1.177              0.581
 Vibration    17          0.895              1.162              0.566

 Optimization completed.
    -- Stationary point found.
 Normal termination of Gaussian 09 at Tue Aug 21 18:50:39 2018.
