 Gaussian 09, Revision E.01,

 ----------------------------------------------------------------------
 # M062X/Gen 6D SCF=Tight INT(grid=ultrafine) OPT IOP(2/17=4) maxdisk=2
 147483648
 ----------------------------------------------------------------------

 -----------------------------------
 2Nitro4FluroNside.M062X_6-31pGd_opt
 -----------------------------------
 Symbolic Z-matrix:
 Charge =  0 Multiplicity = 1

 SCF Done:  E(RM062X) =  -877.557236723     A.U. after   17 cycles
 SCF Done:  E(RM062X) =  -877.603933195     A.U. after   16 cycles
 SCF Done:  E(RM062X) =  -877.637807569     A.U. after   17 cycles
 SCF Done:  E(RM062X) =  -877.647431671     A.U. after   18 cycles
 SCF Done:  E(RM062X) =  -877.653418182     A.U. after   17 cycles
 SCF Done:  E(RM062X) =  -877.654441762     A.U. after   18 cycles
 SCF Done:  E(RM062X) =  -877.661967461     A.U. after   17 cycles
 SCF Done:  E(RM062X) =  -877.662317745     A.U. after   15 cycles
 SCF Done:  E(RM062X) =  -877.662954071     A.U. after   14 cycles
 SCF Done:  E(RM062X) =  -877.663033538     A.U. after   13 cycles
 SCF Done:  E(RM062X) =  -877.663158610     A.U. after   15 cycles
 SCF Done:  E(RM062X) =  -877.663258315     A.U. after   14 cycles
 SCF Done:  E(RM062X) =  -877.663264121     A.U. after   12 cycles
 SCF Done:  E(RM062X) =  -877.663264472     A.U. after   11 cycles
 SCF Done:  E(RM062X) =  -877.663264569     A.U. after   11 cycles
 SCF Done:  E(RM062X) =  -877.663264591     A.U. after   10 cycles
 SCF Done:  E(RM062X) =  -877.663264605     A.U. after   10 cycles
 SCF Done:  E(RM062X) =  -877.663264615     A.U. after    9 cycles
 Optimization completed.
    -- Stationary point found.
 Normal termination of Gaussian 09 at Mon Feb  4 14:16:22 2019.
 Gaussian 09:  ES64L-G09RevE.01 30-Nov-2015

 ----------------------------------------------------------------------
 # M062X/Gen 6D SCF=Tight INT(grid=ultrafine) OPT IOP(2/17=4) Freq=Nora
 man maxdisk=2147483648 geom=check guess=read IOP(2/17=4)
 ----------------------------------------------------------------------

 -----------------------------------
 2Nitro4FluroNside.M062X_6-31pGd_opt
 -----------------------------------
 Structure from the checkpoint file:  "2Nitro4FluroNside.M062X_6-31pGd_opt.chk"
 Charge =  0 Multiplicity = 1

 SCF Done:  E(RM062X) =  -877.663264615     A.U. after    1 cycles
 Optimization completed.
    -- Stationary point found.
 Normal termination of Gaussian 09 at Mon Feb  4 14:17:41 2019.

 ----------------------------------------------------------------------
 #N Geom=AllCheck Guess=TCheck SCRF=Check Test GenChk RM062X/ChkBas Fre
 q
 ----------------------------------------------------------------------

 Structure from the checkpoint file:  "2Nitro4FluroNside.M062X_6-31pGd_opt.chk"
 -----------------------------------
 2Nitro4FluroNside.M062X_6-31pGd_opt
 -----------------------------------
 Charge =  0 Multiplicity = 1

                         Standard orientation:
 ---------------------------------------------------------------------
 Center     Atomic      Atomic             Coordinates (Angstroms)
 Number     Number       Type             X           Y           Z
 ---------------------------------------------------------------------
      1          6           0       -6.313569    0.145070    0.025089
      2          6           0       -4.951046   -0.536698    0.126415
      3          6           0       -3.816367    0.440800   -0.152036
      4          7           0       -2.528328   -0.230571   -0.051132
      5          6           0       -1.377690    0.501888   -0.002643
      6          8           0       -1.370685    1.719467    0.060075
      7          7           0       -0.230659   -0.298205   -0.006002
      8          6           0        1.085421    0.114773    0.002835
      9          6           0        2.159234   -0.819142    0.004646
     10          6           0        1.431476    1.479768    0.002525
     11          6           0        2.760127    1.845768    0.003445
     12          6           0        3.818639    0.940730    0.006585
     13          6           0        3.494390   -0.399318    0.007066
     14          1           0       -7.123486   -0.561477    0.225718
     15          1           0       -6.471680    0.562433   -0.974997
     16          1           0       -4.903138   -1.368685   -0.589612
     17          1           0       -4.815212   -0.966205    1.126135
     18          1           0       -3.821988    1.256694    0.576360
     19          1           0       -3.935336    0.894434   -1.145961
     20          1           0       -2.487034   -1.207822   -0.310458
     21          1           0        0.660276    2.236704    0.006007
     22          9           0        3.048384    3.153947    0.002944
     23          7           0        1.956721   -2.262328    0.002607
     24          1           0        4.843921    1.290142    0.009116
     25          8           0        2.935159   -2.983912   -0.011597
     26          8           0        0.806519   -2.706533    0.015046
     27          1           0       -6.395445    0.964287    0.747075
     28          1           0       -0.349368   -1.304796    0.025107
     29          1           0        4.267263   -1.157524    0.008935
 ---------------------------------------------------------------------

 SCF Done:  E(RM062X) =  -877.663264615     A.U. after    1 cycles

 The electronic state is 1-A.
 Alpha  occ. eigenvalues --  -25.29725 -19.69964 -19.69890 -19.63146 -15.03460
 Alpha  occ. eigenvalues --  -14.82245 -14.80523 -10.70613 -10.67094 -10.65752
 Alpha  occ. eigenvalues --  -10.63270 -10.59876 -10.59528 -10.58262 -10.57676
 Alpha  occ. eigenvalues --  -10.56558 -10.55177  -1.39411  -1.38642  -1.20077
 Alpha  occ. eigenvalues --   -1.19661  -1.08745  -1.05212  -1.00068  -0.92822
 Alpha  occ. eigenvalues --   -0.90467  -0.87902  -0.81805  -0.79412  -0.75357
 Alpha  occ. eigenvalues --   -0.72660  -0.70479  -0.70034  -0.66340  -0.66017
 Alpha  occ. eigenvalues --   -0.65064  -0.64293  -0.62579  -0.59582  -0.58603
 Alpha  occ. eigenvalues --   -0.58547  -0.57372  -0.55080  -0.54130  -0.53797
 Alpha  occ. eigenvalues --   -0.52027  -0.51654  -0.50273  -0.49407  -0.48148
 Alpha  occ. eigenvalues --   -0.46341  -0.45486  -0.44171  -0.42228  -0.41629
 Alpha  occ. eigenvalues --   -0.41014  -0.40705  -0.39732  -0.39326  -0.36320
 Alpha  occ. eigenvalues --   -0.34155  -0.33537  -0.30001
 Alpha virt. eigenvalues --   -0.06781  -0.00640   0.00292   0.01793   0.02468
 Alpha virt. eigenvalues --    0.02820   0.02921   0.03438   0.03649   0.04306
 Alpha virt. eigenvalues --    0.05230   0.05590   0.06122   0.06669   0.07056

 Mulliken charges:
               1
     1  C   -0.717864
     2  C   -0.343288
     3  C   -0.076804
     4  N   -0.588595
     5  C    0.817089
     6  O   -0.568472
     7  N   -0.705777
     8  C   -0.112288
     9  C   -0.726082
    10  C    0.155453
    11  C   -0.113539
    12  C   -0.082539
    13  C    0.607569
    14  H    0.216491
    15  H    0.214860
    16  H    0.208612
    17  H    0.228741
    18  H    0.243763
    19  H    0.220678
    20  H    0.405231
    21  H    0.307196
    22  F   -0.318802
    23  N   -0.415006
    24  H    0.241868
    25  O   -0.025997
    26  O   -0.046479
    27  H    0.215875
    28  H    0.488212
    29  H    0.269893
 Sum of Mulliken charges =   0.00000

 Dipole moment (field-independent basis, Debye):
    X=             -2.1276    Y=             -0.5441    Z=             -0.4602  Tot=              2.2438
 Quadrupole moment (field-independent basis, Debye-Ang):
   XX=            -80.1695   YY=           -118.6139   ZZ=           -100.1574
   XY=              8.8298   XZ=              1.1919   YZ=              0.4921

  Exact polarizability: 215.270   1.813 167.857   0.836  -0.064  87.782
 Approx polarizability: 229.358   3.171 217.739   0.568   0.617 114.508

                      1                      2                      3
                      A                      A                      A
 Frequencies --     19.8459                26.7911                49.1855
 Red. masses --      3.3318                 5.2519                 3.0900
 Frc consts  --      0.0008                 0.0022                 0.0044
 IR Inten    --      0.8775                 3.0823                 8.2285

                      4                      5                      6
                      A                      A                      A
 Frequencies --     56.4516                62.2398                84.0435
 Red. masses --      4.8853                 4.1834                 3.7403
 Frc consts  --      0.0092                 0.0095                 0.0156
 IR Inten    --      1.5625                 0.4586                 0.5266

                      7                      8                      9
                      A                      A                      A
 Frequencies --    107.2540               151.3193               192.0981
 Red. masses --      8.1072                 4.3798                 3.2982
 Frc consts  --      0.0549                 0.0591                 0.0717
 IR Inten    --      5.3132                12.8126                 1.9429

                     10                     11                     12
                      A                      A                      A
 Frequencies --    209.1625               231.8302               243.1535
 Red. masses --      6.6060                 5.0230                 1.1447
 Frc consts  --      0.1703                 0.1591                 0.0399
 IR Inten    --      2.7841                 0.3787                 0.0618

                     13                     14                     15
                      A                      A                      A
 Frequencies --    299.5539               308.4429               309.8446
 Red. masses --      4.6182                 7.4057                 1.4361
 Frc consts  --      0.2442                 0.4151                 0.0812
 IR Inten    --      1.9697                 4.9028                62.3526

                     16                     17                     18
                      A                      A                      A
 Frequencies --    315.9573               357.6470               371.5525
 Red. masses --      4.8358                 5.1707                12.5897
 Frc consts  --      0.2844                 0.3897                 1.0240
 IR Inten    --      8.0859                10.7166                 0.8009

                     19                     20                     21
                      A                      A                      A
 Frequencies --    437.4579               455.7223               474.5664
 Red. masses --      6.9899                 3.1185                 4.4539
 Frc consts  --      0.7881                 0.3816                 0.5910
 IR Inten    --      8.1340                 5.7808                 2.8027

                     22                     23                     24
                      A                      A                      A
 Frequencies --    578.6932               615.5419               637.4605
 Red. masses --      6.1335                 6.2890                 5.5236
 Frc consts  --      1.2102                 1.4039                 1.3224
 IR Inten    --      4.9727                13.9681                 1.1120

                     25                     26                     27
                      A                      A                      A
 Frequencies --    649.1705               667.6636               676.0290
 Red. masses --      7.1905                 1.1738                 3.7211
 Frc consts  --      1.7854                 0.3083                 1.0020
 IR Inten    --      6.0252               107.3272                 6.3667

                     28                     29                     30
                      A                      A                      A
 Frequencies --    756.5342               762.4123               770.3271
 Red. masses --      1.4897                 6.0690                 2.7237
 Frc consts  --      0.5024                 2.0785                 0.9523
 IR Inten    --      8.8440                24.6304                 0.4704

                     31                     32                     33
                      A                      A                      A
 Frequencies --    776.5794               797.8885               836.9994
 Red. masses --      6.2726                 6.8563                 1.5575
 Frc consts  --      2.2288                 2.5717                 0.6429
 IR Inten    --     13.4190                 0.9499                23.3495

                     34                     35                     36
                      A                      A                      A
 Frequencies --    891.2730               902.8908               914.6771
 Red. masses --      7.0052                 1.2213                 1.3918
 Frc consts  --      3.2786                 0.5866                 0.6861
 IR Inten    --     28.7979                 2.7517                38.5399

                     37                     38                     39
                      A                      A                      A
 Frequencies --    931.0951               991.4157              1027.4386
 Red. masses --      1.6900                 1.3075                 3.0314
 Frc consts  --      0.8632                 0.7572                 1.8854
 IR Inten    --      1.9807                 1.9545                36.5523

                     40                     41                     42
                      A                      A                      A
 Frequencies --   1043.6032              1076.6596              1111.3153
 Red. masses --      4.1942                 2.7703                 2.6798
 Frc consts  --      2.6914                 1.8921                 1.9499
 IR Inten    --     14.2315                12.1836                36.3322

                     43                     44                     45
                      A                      A                      A
 Frequencies --   1152.0968              1166.7799              1172.5553
 Red. masses --      2.5346                 2.3023                 1.6566
 Frc consts  --      1.9822                 1.8467                 1.3420
 IR Inten    --     31.5616                15.3741                23.1122

                     46                     47                     48
                      A                      A                      A
 Frequencies --   1184.6824              1231.5217              1241.1442
 Red. masses --      1.7513                 1.9592                 1.8894
 Frc consts  --      1.4481                 1.7507                 1.7148
 IR Inten    --      6.3879               254.4665                35.7397

                     49                     50                     51
                      A                      A                      A
 Frequencies --   1272.7044              1286.2387              1327.2669
 Red. masses --      1.5323                 1.3177                 1.3103
 Frc consts  --      1.4623                 1.2844                 1.3600
 IR Inten    --     46.8812               117.3752                81.5260

                     52                     53                     54
                      A                      A                      A
 Frequencies --   1332.9935              1347.7150              1366.0386
 Red. masses --      2.2872                 1.5328                 3.7520
 Frc consts  --      2.3944                 1.6404                 4.1252
 IR Inten    --    179.3428                21.6760               111.3777

                     55                     56                     57
                      A                      A                      A
 Frequencies --   1424.1066              1437.3440              1438.9744
 Red. masses --      1.8374                 4.0920                 1.3212
 Frc consts  --      2.1955                 4.9809                 1.6118
 IR Inten    --     34.0222               177.7552                 0.4389

                     58                     59                     60
                      A                      A                      A
 Frequencies --   1513.0786              1516.5084              1516.9424
 Red. masses --      3.2466                 3.9914                 1.0806
 Frc consts  --      4.3793                 5.4083                 1.4650
 IR Inten    --    150.2259               116.7237                 8.7982

                     61                     62                     63
                      A                      A                      A
 Frequencies --   1526.1211              1528.0034              1540.8486
 Red. masses --      1.0424                 1.0729                 1.0985
 Frc consts  --      1.4304                 1.4759                 1.5366
 IR Inten    --     12.8205                 4.4892                17.2489

                     64                     65                     66
                      A                      A                      A
 Frequencies --   1564.6394              1583.1939              1666.6009
 Red. masses --      2.1654                 2.8739                 4.8341
 Frc consts  --      3.1234                 4.2442                 7.9110
 IR Inten    --    822.0777               718.4347               344.5381

                     67                     68                     69
                      A                      A                      A
 Frequencies --   1677.0847              1721.9510              1824.2941
 Red. masses --      6.4065                 8.0547                 8.2474
 Frc consts  --     10.6165                14.0715                16.1718
 IR Inten    --     59.4528               343.1235               282.1180

                     70                     71                     72
                      A                      A                      A
 Frequencies --   3058.3276              3061.5951              3081.2312
 Red. masses --      1.0674                 1.0672                 1.0365
 Frc consts  --      5.8825                 5.8938                 5.7978
 IR Inten    --     18.0891                36.7690                30.1717

                     73                     74                     75
                      A                      A                      A
 Frequencies --   3106.8424              3141.2116              3152.4231
 Red. masses --      1.0967                 1.0968                 1.1028
 Frc consts  --      6.2369                 6.3764                 6.4569
 IR Inten    --     14.2349                 3.7237                45.9193

                     76                     77                     78
                      A                      A                      A
 Frequencies --   3162.7565              3267.7149              3280.5860
 Red. masses --      1.1018                 1.0906                 1.0955
 Frc consts  --      6.4939                 6.8616                 6.9466
 IR Inten    --     26.2676                 0.3985                 6.8128

                     79                     80                     81
                      A                      A                      A
 Frequencies --   3299.1189              3572.8413              3636.5429
 Red. masses --      1.0924                 1.0777                 1.0782
 Frc consts  --      7.0050                 8.1056                 8.4013
 IR Inten    --     39.3025               139.8730                43.8176

 - Thermochemistry -
 -------------------
 Temperature   298.150 Kelvin.  Pressure   1.00000 Atm.
 Atom     1 has atomic number  6 and mass  12.00000

 Molecular mass:   241.08627 amu.
 Principal axes and moments of inertia in atomic units:
                           1         2         3
     Eigenvalues --  2464.122297994.07062**********
           X            0.99999  -0.00378   0.00026
           Y            0.00378   0.99999  -0.00027
           Z           -0.00026   0.00027   1.00000
 This molecule is an asymmetric top.
 Rotational symmetry number  1.
 Warning -- assumption of classical behavior for rotation
           may cause significant error
 Rotational temperatures (Kelvin)      0.03515     0.01083     0.00831
 Rotational constants (GHZ):           0.73241     0.22576     0.17322
 Zero-point vibrational energy     595515.4 (Joules/Mol)
                                  142.33161 (Kcal/Mol)
 Warning -- explicit consideration of  23 degrees of freedom as
           vibrations may cause significant error
 Vibrational temperatures:     28.55    38.55    70.77    81.22    89.55
          (Kelvin)            120.92   154.31   217.71   276.39   300.94
                              333.55   349.84   430.99   443.78   445.80
                              454.59   514.57   534.58   629.40   655.68
                              682.79   832.61   885.63   917.16   934.01
                              960.62   972.65  1088.48  1096.94  1108.33
                             1117.32  1147.98  1204.25  1282.34  1299.06
                             1316.01  1339.64  1426.42  1478.25  1501.51
                             1549.07  1598.93  1657.61  1678.73  1687.04
                             1704.49  1771.88  1785.73  1831.14  1850.61
                             1909.64  1917.88  1939.06  1965.42  2048.97
                             2068.01  2070.36  2176.98  2181.91  2182.54
                             2195.75  2198.45  2216.93  2251.16  2277.86
                             2397.86  2412.95  2477.50  2624.75  4400.25
                             4404.95  4433.20  4470.05  4519.50  4535.63
                             4550.50  4701.51  4720.03  4746.69  5140.52
                             5232.17

 Zero-point correction=                           0.226820 (Hartree/Particle)
 Thermal correction to Energy=                    0.243207
 Thermal correction to Enthalpy=                  0.244151
 Thermal correction to Gibbs Free Energy=         0.179813
 Sum of electronic and zero-point Energies=           -877.436445
 Sum of electronic and thermal Energies=              -877.420057
 Sum of electronic and thermal Enthalpies=            -877.419113
 Sum of electronic and thermal Free Energies=         -877.483451

                     E (Thermal)             CV                S
                      KCal/Mol        Cal/Mol-Kelvin    Cal/Mol-Kelvin
 Total                  152.615             59.110            135.411
 Electronic               0.000              0.000              0.000
 Translational            0.889              2.981             42.341
 Rotational               0.889              2.981             33.684
 Vibrational            150.837             53.148             59.386
 Vibration     1          0.593              1.986              6.650
 Vibration     2          0.593              1.984              6.054
 Vibration     3          0.595              1.978              4.850
 Vibration     4          0.596              1.975              4.578
 Vibration     5          0.597              1.972              4.385
 Vibration     6          0.601              1.960              3.794
 Vibration     7          0.606              1.943              3.318
 Vibration     8          0.619              1.901              2.656
 Vibration     9          0.634              1.851              2.207
 Vibration    10          0.642              1.827              2.051
 Vibration    11          0.653              1.792              1.865
 Vibration    12          0.659              1.774              1.780
 Vibration    13          0.692              1.675              1.419
 Vibration    14          0.698              1.658              1.371
 Vibration    15          0.699              1.655              1.363
 Vibration    16          0.703              1.643              1.331
 Vibration    17          0.733              1.560              1.132
 Vibration    18          0.743              1.531              1.073
 Vibration    19          0.798              1.389              0.835
 Vibration    20          0.814              1.348              0.779
 Vibration    21          0.831              1.306              0.725
 Vibration    22          0.935              1.077              0.488
 Vibration    23          0.975              0.999              0.424

 Optimization completed.
    -- Stationary point found.
 Normal termination of Gaussian 09 at Mon Feb  4 15:01:49 2019.
