 Gaussian 09, Revision E.01,

 ----------------------------------------------------------------------
 # M062X/Gen 6D SCF=Tight INT(grid=ultrafine) OPT IOP(2/17=4) SCRF=(SMD
 ,Solvent=n-Pentadecane) maxdisk=2147483648
 ----------------------------------------------------------------------

 ------------------------------------------
 2Nitro4Fluro.M062X_6-31pGd_opt_Pentadecane
 ------------------------------------------
 Symbolic Z-matrix:
 Charge =  0 Multiplicity = 1

 SCF Done:  E(RM062X) =  -877.619668525     A.U. after   16 cycles
 SCF Done:  E(RM062X) =  -877.652536244     A.U. after   17 cycles
 SCF Done:  E(RM062X) =  -877.642627366     A.U. after   17 cycles
 SCF Done:  E(RM062X) =  -877.663911633     A.U. after   14 cycles
 SCF Done:  E(RM062X) =  -877.663941449     A.U. after   17 cycles
 SCF Done:  E(RM062X) =  -877.666835122     A.U. after   17 cycles
 SCF Done:  E(RM062X) =  -877.667734671     A.U. after   15 cycles
 SCF Done:  E(RM062X) =  -877.668530705     A.U. after   15 cycles
 SCF Done:  E(RM062X) =  -877.668922705     A.U. after   15 cycles
 SCF Done:  E(RM062X) =  -877.669178117     A.U. after   15 cycles
 SCF Done:  E(RM062X) =  -877.669976430     A.U. after   15 cycles
 SCF Done:  E(RM062X) =  -877.670059027     A.U. after   14 cycles
 SCF Done:  E(RM062X) =  -877.670097329     A.U. after   15 cycles
 SCF Done:  E(RM062X) =  -877.670116327     A.U. after   14 cycles
 SCF Done:  E(RM062X) =  -877.670124212     A.U. after   14 cycles
 SCF Done:  E(RM062X) =  -877.670125543     A.U. after   12 cycles
 SCF Done:  E(RM062X) =  -877.670126238     A.U. after   12 cycles
 SCF Done:  E(RM062X) =  -877.670126369     A.U. after   10 cycles
 SCF Done:  E(RM062X) =  -877.670126438     A.U. after   10 cycles
 Optimization completed.
    -- Stationary point found.
 Normal termination of Gaussian 09 at Sun Feb 24 11:45:14 2019.
 Gaussian 09:  ES64L-G09RevE.01 30-Nov-2015

 ----------------------------------------------------------------------
 # M062X/Gen 6D SCF=Tight INT(grid=ultrafine) SCRF=(SMD,Solvent=n-Penta
 decane) Freq=Noraman maxdisk=2147483648 geom=check guess=read IOP(2/17
 =4)
 ----------------------------------------------------------------------

 ------------------------------------------
 2Nitro4Fluro.M062X_6-31pGd_opt_Pentadecane
 ------------------------------------------
 Structure from the checkpoint file:  "2Nitro4Fluro.M062X_6-31pGd_opt_Pentadecane.chk"
 Charge =  0 Multiplicity = 1

                         Standard orientation:
 ---------------------------------------------------------------------
 Center     Atomic      Atomic             Coordinates (Angstroms)
 Number     Number       Type             X           Y           Z
 ---------------------------------------------------------------------
      1          6           0       -6.098169   -0.347226    0.349386
      2          6           0       -4.805601   -0.935966   -0.208359
      3          6           0       -3.587361   -0.154339    0.264966
      4          7           0       -2.367360   -0.730312   -0.290028
      5          6           0       -1.155211   -0.293029    0.149597
      6          8           0       -0.997375    0.486734    1.072401
      7          7           0       -0.077252   -0.857715   -0.552091
      8          6           0        1.245969   -0.524995   -0.276114
      9          6           0        1.698258    0.790905   -0.079392
     10          6           0        2.193542   -1.550790   -0.181604
     11          6           0        3.510801   -1.243120    0.103831
     12          6           0        3.955682    0.049050    0.342168
     13          6           0        3.020920    1.069750    0.252763
     14          1           0       -6.969185   -0.913903    0.007225
     15          1           0       -6.227862    0.692634    0.030149
     16          1           0       -4.841079   -0.926169   -1.306418
     17          1           0       -4.701516   -1.983194    0.100649
     18          1           0       -3.507294   -0.191500    1.355117
     19          1           0       -3.673672    0.902987   -0.020007
     20          1           0       -2.416596   -1.070807   -1.243664
     21          1           0        1.898558   -2.588687   -0.300292
     22          9           0        4.392985   -2.255266    0.179116
     23          7           0        0.831584    1.951889   -0.304635
     24          1           0        4.995997    0.238580    0.579643
     25          8           0        1.026602    2.939613    0.379264
     26          8           0        0.012492    1.883574   -1.204961
     27          1           0       -6.096476   -0.363564    1.444778
     28          1           0       -0.222700   -1.788927   -0.924767
     29          1           0        3.309438    2.102094    0.415720
 ---------------------------------------------------------------------

 SCF Done:  E(RM062X) =  -877.670126438     A.U. after    1 cycles

 The electronic state is 1-A.
 Alpha  occ. eigenvalues --  -25.29728 -19.68451 -19.68289 -19.62370 -15.01697
 Alpha  occ. eigenvalues --  -14.81207 -14.79364 -10.69458 -10.66633 -10.64195
 Alpha  occ. eigenvalues --  -10.62215 -10.59178 -10.58345 -10.58224 -10.57804
 Alpha  occ. eigenvalues --  -10.55230 -10.53887  -1.39231  -1.37105  -1.19171
 Alpha  occ. eigenvalues --   -1.18255  -1.07526  -1.04227  -0.99313  -0.91744
 Alpha  occ. eigenvalues --   -0.89322  -0.87159  -0.80561  -0.78292  -0.74307
 Alpha  occ. eigenvalues --   -0.71748  -0.69045  -0.68478  -0.65389  -0.64917
 Alpha  occ. eigenvalues --   -0.64388  -0.62211  -0.60940  -0.59543  -0.58479
 Alpha  occ. eigenvalues --   -0.57674  -0.56374  -0.54344  -0.53313  -0.52518
 Alpha  occ. eigenvalues --   -0.51688  -0.50667  -0.50177  -0.47870  -0.46883
 Alpha  occ. eigenvalues --   -0.45324  -0.44927  -0.42891  -0.40977  -0.40352
 Alpha  occ. eigenvalues --   -0.39802  -0.38547  -0.37994  -0.37598  -0.36338
 Alpha  occ. eigenvalues --   -0.33011  -0.32798  -0.29905
 Alpha virt. eigenvalues --   -0.04514  -0.00754   0.00646   0.02350   0.02728
 Alpha virt. eigenvalues --    0.03164   0.03370   0.03788   0.04226   0.04541
 Alpha virt. eigenvalues --    0.05327   0.05539   0.06391   0.07055   0.07494

 Mulliken charges:
               1
     1  C   -0.732843
     2  C   -0.338805
     3  C   -0.195261
     4  N   -0.626785
     5  C    0.463563
     6  O   -0.527096
     7  N   -0.689993
     8  C    1.141618
     9  C    0.115867
    10  C   -0.658695
    11  C    0.179899
    12  C   -0.205929
    13  C   -0.584582
    14  H    0.217647
    15  H    0.219823
    16  H    0.212406
    17  H    0.227435
    18  H    0.242625
    19  H    0.231464
    20  H    0.424556
    21  H    0.252533
    22  F   -0.329827
    23  N   -0.168411
    24  H    0.259298
    25  O   -0.011430
    26  O   -0.074051
    27  H    0.218730
    28  H    0.462673
    29  H    0.273571
 Sum of Mulliken charges =   0.00000

 Dipole moment (field-independent basis, Debye):
    X=             -1.1569    Y=             -5.2614    Z=             -2.3261  Tot=              5.8678
 Quadrupole moment (field-independent basis, Debye-Ang):
   XX=            -80.3433   YY=           -105.2856   ZZ=           -103.0090
   XY=              9.5918   XZ=              4.0588   YZ=              3.3012

  Exact polarizability: 223.193  -3.145 169.029  15.982  12.861 116.137
 Approx polarizability: 208.551  -0.519 194.683  23.921  21.896 145.470

                      1                      2                      3
                      A                      A                      A
 Frequencies --     28.6087                55.7875                62.8058
 Red. masses --      5.5402                 3.8045                 2.0357
 Frc consts  --      0.0027                 0.0070                 0.0047
 IR Inten    --      1.6130                 0.7736                 0.6064

                      4                      5                      6
                      A                      A                      A
 Frequencies --     67.3417                86.9995               105.1177
 Red. masses --      4.7939                 4.7441                 7.6400
 Frc consts  --      0.0128                 0.0212                 0.0497
 IR Inten    --      4.1444                 0.9583                 4.4026

                      7                      8                      9
                      A                      A                      A
 Frequencies --    118.0410               164.8853               192.6235
 Red. masses --      4.9034                 7.2195                 3.0020
 Frc consts  --      0.0403                 0.1156                 0.0656
 IR Inten    --      3.4315                11.4350                 3.5180

                     10                     11                     12
                      A                      A                      A
 Frequencies --    214.8027               242.1104               244.6771
 Red. masses --      6.5108                 5.0557                 1.1819
 Frc consts  --      0.1770                 0.1746                 0.0417
 IR Inten    --     11.4276                 5.3747                 0.7989

                     13                     14                     15
                      A                      A                      A
 Frequencies --    264.1985               295.2237               322.9379
 Red. masses --      4.9169                 7.7039                 4.9218
 Frc consts  --      0.2022                 0.3956                 0.3024
 IR Inten    --      3.3886                 7.8636                 7.2830

                     16                     17                     18
                      A                      A                      A
 Frequencies --    332.9030               362.4033               404.0964
 Red. masses --      4.2405                 7.3221                 1.4691
 Frc consts  --      0.2769                 0.5666                 0.1413
 IR Inten    --     48.6427                 6.4336                84.5670

                     19                     20                     21
                      A                      A                      A
 Frequencies --    423.7104               447.5615               474.1894
 Red. masses --      1.8272                 3.4955                 3.9689
 Frc consts  --      0.1933                 0.4125                 0.5258
 IR Inten    --     94.3443                31.6976                 5.5785

                     22                     23                     24
                      A                      A                      A
 Frequencies --    482.9568               560.7275               629.1035
 Red. masses --      2.5069                 5.5239                 7.0806
 Frc consts  --      0.3445                 1.0233                 1.6511
 IR Inten    --     59.5404                 2.3950                31.6532

                     25                     26                     27
                      A                      A                      A
 Frequencies --    634.1156               644.2485               701.9880
 Red. masses --      4.1318                 5.5009                 4.2803
 Frc consts  --      0.9789                 1.3452                 1.2428
 IR Inten    --      7.9664                 6.4076                 6.8318

                     28                     29                     30
                      A                      A                      A
 Frequencies --    746.7817               761.0300               766.6626
 Red. masses --      4.1499                 1.7074                 2.6082
 Frc consts  --      1.3636                 0.5826                 0.9032
 IR Inten    --     24.1938                16.8770                 5.3144

                     31                     32                     33
                      A                      A                      A
 Frequencies --    781.4830               831.1515               854.6872
 Red. masses --      4.1045                 2.8868                 2.2588
 Frc consts  --      1.4769                 1.1750                 0.9722
 IR Inten    --     28.6933                 5.0656                24.6226

                     34                     35                     36
                      A                      A                      A
 Frequencies --    874.4624               884.1088               902.3793
 Red. masses --      8.5761                 1.6729                 1.1963
 Frc consts  --      3.8639                 0.7704                 0.5739
 IR Inten    --     27.8929                47.8962                 3.1000

                     37                     38                     39
                      A                      A                      A
 Frequencies --    930.4399               983.6972              1000.2054
 Red. masses --      1.7143                 1.3876                 3.2222
 Frc consts  --      0.8744                 0.7911                 1.8993
 IR Inten    --      3.1844                 4.8730                21.0701

                     40                     41                     42
                      A                      A                      A
 Frequencies --   1051.2345              1080.5244              1119.4590
 Red. masses --      3.5889                 2.5758                 2.3587
 Frc consts  --      2.3367                 1.7718                 1.7415
 IR Inten    --     26.7290                13.5969                13.8472

                     43                     44                     45
                      A                      A                      A
 Frequencies --   1145.0297              1165.3341              1174.9563
 Red. masses --      1.9238                 2.2158                 2.0774
 Frc consts  --      1.4861                 1.7729                 1.6897
 IR Inten    --     19.1415                 2.4018                 9.0124

                     46                     47                     48
                      A                      A                      A
 Frequencies --   1182.3974              1209.0860              1251.5683
 Red. masses --      1.8775                 1.8525                 1.7562
 Frc consts  --      1.5466                 1.5956                 1.6208
 IR Inten    --      9.4486               240.5265               131.8856

                     49                     50                     51
                      A                      A                      A
 Frequencies --   1282.7737              1288.2981              1323.7544
 Red. masses --      1.3588                 1.4762                 1.3465
 Frc consts  --      1.3173                 1.4435                 1.3902
 IR Inten    --     35.5390               118.2207                25.9562

                     52                     53                     54
                      A                      A                      A
 Frequencies --   1331.9721              1347.8000              1379.2133
 Red. masses --      2.6247                 1.4561                 4.9503
 Frc consts  --      2.7436                 1.5584                 5.5481
 IR Inten    --     94.3608                27.3209                14.6600

                     55                     56                     57
                      A                      A                      A
 Frequencies --   1422.5468              1436.7880              1447.2868
 Red. masses --      1.5203                 1.3272                 2.2828
 Frc consts  --      1.8127                 1.6142                 2.8172
 IR Inten    --      6.8330                 2.2360                80.1093

                     58                     59                     60
                      A                      A                      A
 Frequencies --   1481.9048              1508.2055              1519.7623
 Red. masses --     11.0137                 1.0629                 1.0408
 Frc consts  --     14.2503                 1.4245                 1.4163
 IR Inten    --    204.9730                11.6082                14.7012

                     61                     62                     63
                      A                      A                      A
 Frequencies --   1522.1641              1533.6660              1541.3962
 Red. masses --      1.0753                 1.2017                 3.1402
 Frc consts  --      1.4679                 1.6654                 4.3957
 IR Inten    --      7.8979                16.5405               299.0071

                     64                     65                     66
                      A                      A                      A
 Frequencies --   1546.8334              1577.0255              1675.1743
 Red. masses --      2.0673                 2.6103                 7.3228
 Frc consts  --      2.9143                 3.8249                12.1074
 IR Inten    --    617.1687               318.4413               133.3687

                     67                     68                     69
                      A                      A                      A
 Frequencies --   1686.6812              1722.4992              1822.2865
 Red. masses --      8.3793                10.4584                 9.6817
 Frc consts  --     14.0451                18.2824                18.9424
 IR Inten    --    243.6603               346.7836               421.8709

                     70                     71                     72
                      A                      A                      A
 Frequencies --   3060.3711              3069.7964              3080.0025
 Red. masses --      1.0628                 1.0695                 1.0367
 Frc consts  --      5.8645                 5.9382                 5.7944
 IR Inten    --     25.3387                30.1373                35.2138

                     73                     74                     75
                      A                      A                      A
 Frequencies --   3104.9315              3141.8510              3150.9115
 Red. masses --      1.0972                 1.0991                 1.1030
 Frc consts  --      6.2319                 6.3924                 6.4521
 IR Inten    --     18.6951                 3.9115                59.6686

                     76                     77                     78
                      A                      A                      A
 Frequencies --   3158.7984              3244.8739              3261.3421
 Red. masses --      1.1020                 1.0933                 1.0901
 Frc consts  --      6.4785                 6.7825                 6.8314
 IR Inten    --     33.5956                 0.2088                 0.9140

                     79                     80                     81
                      A                      A                      A
 Frequencies --   3271.5419              3618.8167              3622.3017
 Red. masses --      1.0970                 1.0775                 1.0775
 Frc consts  --      6.9179                 8.3140                 8.3300
 IR Inten    --      4.8183                18.0379               101.0412

 - Thermochemistry -
 -------------------
 Temperature   298.150 Kelvin.  Pressure   1.00000 Atm.
 Atom     1 has atomic number  6 and mass  12.00000

 Molecular mass:   241.08627 amu.
 Principal axes and moments of inertia in atomic units:
                           1         2         3
     Eigenvalues --  1930.759528012.331079466.72813
           X            0.99982   0.01872  -0.00063
           Y           -0.01871   0.99974   0.01309
           Z            0.00087  -0.01308   0.99991
 This molecule is an asymmetric top.
 Rotational symmetry number  1.
 Warning -- assumption of classical behavior for rotation
           may cause significant error
 Rotational temperatures (Kelvin)      0.04486     0.01081     0.00915
 Rotational constants (GHZ):           0.93473     0.22525     0.19064
 Zero-point vibrational energy     594809.7 (Joules/Mol)
                                  142.16293 (Kcal/Mol)
 Warning -- explicit consideration of  23 degrees of freedom as
           vibrations may cause significant error
 Vibrational temperatures:     41.16    80.27    90.36    96.89   125.17
          (Kelvin)            151.24   169.83   237.23   277.14   309.05
                              348.34   352.04   380.12   424.76   464.63
                              478.97   521.42   581.40   609.62   643.94
                              682.25   694.87   806.76   905.14   912.35
                              926.93  1010.00  1074.45  1094.95  1103.06
                             1124.38  1195.84  1229.70  1258.15  1272.03
                             1298.32  1338.69  1415.32  1439.07  1512.49
                             1554.63  1610.65  1647.44  1676.65  1690.50
                             1701.20  1739.60  1800.73  1845.62  1853.57
                             1904.58  1916.41  1939.18  1984.38  2046.72
                             2067.21  2082.32  2132.13  2169.97  2186.60
                             2190.05  2206.60  2217.72  2225.55  2268.99
                             2410.20  2426.75  2478.29  2621.86  4403.19
                             4416.75  4431.43  4467.30  4520.42  4533.45
                             4544.80  4668.64  4692.34  4707.01  5206.66
                             5211.68

 Zero-point correction=                           0.226551 (Hartree/Particle)
 Thermal correction to Energy=                    0.242767
 Thermal correction to Enthalpy=                  0.243711
 Thermal correction to Gibbs Free Energy=         0.181517
 Sum of electronic and zero-point Energies=           -877.443575
 Sum of electronic and thermal Energies=              -877.427359
 Sum of electronic and thermal Enthalpies=            -877.426415
 Sum of electronic and thermal Free Energies=         -877.488609

                     E (Thermal)             CV                S
                      KCal/Mol        Cal/Mol-Kelvin    Cal/Mol-Kelvin
 Total                  152.339             59.418            130.898
 Electronic               0.000              0.000              0.000
 Translational            0.889              2.981             42.341
 Rotational               0.889              2.981             33.348
 Vibrational            150.561             53.456             55.209
 Vibration     1          0.593              1.984              5.924
 Vibration     2          0.596              1.975              4.601
 Vibration     3          0.597              1.972              4.367
 Vibration     4          0.598              1.970              4.230
 Vibration     5          0.601              1.958              3.726
 Vibration     6          0.605              1.945              3.357
 Vibration     7          0.608              1.934              3.132
 Vibration     8          0.623              1.886              2.493
 Vibration     9          0.635              1.850              2.202
 Vibration    10          0.645              1.818              2.002
 Vibration    11          0.658              1.776              1.787
 Vibration    12          0.660              1.772              1.769
 Vibration    13          0.671              1.739              1.634
 Vibration    14          0.689              1.683              1.444
 Vibration    15          0.708              1.630              1.295
 Vibration    16          0.715              1.610              1.246
 Vibration    17          0.736              1.550              1.112
 Vibration    18          0.769              1.461              0.948
 Vibration    19          0.786              1.419              0.879
 Vibration    20          0.807              1.366              0.803
 Vibration    21          0.831              1.307              0.726
 Vibration    22          0.839              1.288              0.702
 Vibration    23          0.916              1.116              0.522

 Normal termination of Gaussian 09 at Sun Feb 24 12:29:01 2019.
