 Gaussian 09, Revision E.01,

 ----------------------------------------------------------------------
 # M062X/Gen 6D SCF=Tight INT(grid=ultrafine) OPT IOP(2/17=4) SCRF=(SMD
 ,Solvent=n-Pentadecane) maxdisk=2684354560
 ----------------------------------------------------------------------

 -------------------------------------------------
 2Nitro4Fluro_OS_EtO.M062X_6-31pGd_opt_Pentadecane
 -------------------------------------------------
 Symbolic Z-matrix:
 Charge = -1 Multiplicity = 1

 SCF Done:  E(RM062X) =  -1145.42976225     A.U. after   17 cycles
 SCF Done:  E(RM062X) =  -1145.46842135     A.U. after   18 cycles
 SCF Done:  E(RM062X) =  -1145.43703247     A.U. after   20 cycles
 SCF Done:  E(RM062X) =  -1145.47135980     A.U. after   15 cycles
 SCF Done:  E(RM062X) =  -1145.47981923     A.U. after   19 cycles
 SCF Done:  E(RM062X) =  -1145.48561881     A.U. after   17 cycles
 SCF Done:  E(RM062X) =  -1145.48354238     A.U. after   17 cycles
 SCF Done:  E(RM062X) =  -1145.49136144     A.U. after   13 cycles
 SCF Done:  E(RM062X) =  -1145.49113107     A.U. after   18 cycles
 SCF Done:  E(RM062X) =  -1145.49348220     A.U. after   14 cycles
 SCF Done:  E(RM062X) =  -1145.49911527     A.U. after   12 cycles
 SCF Done:  E(RM062X) =  -1145.49911586     A.U. after   12 cycles
 SCF Done:  E(RM062X) =  -1145.49911631     A.U. after   12 cycles
 SCF Done:  E(RM062X) =  -1145.49911659     A.U. after   11 cycles
 SCF Done:  E(RM062X) =  -1145.49911678     A.U. after   10 cycles
 SCF Done:  E(RM062X) =  -1145.49911683     A.U. after   11 cycles
 SCF Done:  E(RM062X) =  -1145.49911682     A.U. after   11 cycles
 SCF Done:  E(RM062X) =  -1145.49911681     A.U. after   10 cycles
 Optimization completed.
    -- Stationary point found.
 Normal termination of Gaussian 09 at Tue Feb 19 13:11:10 2019.
 Gaussian 09:  ES64L-G09RevE.01 30-Nov-2015

 ----------------------------------------------------------------------
 # M062X/Gen 6D SCF=Tight INT(grid=ultrafine) OPT IOP(2/17=4) SCRF=(SMD
 ,Solvent=n-Pentadecane) Freq=Noraman maxdisk=2684354560 geom=check gue
 ss=read IOP(2/17=4)
 ----------------------------------------------------------------------

 -------------------------------------------------
 2Nitro4Fluro_OS_EtO.M062X_6-31pGd_opt_Pentadecane
 -------------------------------------------------
 Structure from the checkpoint file:  "2Nitro4Fluro_OS_EtO.M062X_6-31pGd_opt_Pentadecane.chk"
 Charge = -1 Multiplicity = 1

 SCF Done:  E(RM062X) =  -1145.49911681     A.U. after    1 cycles
 Optimization completed.
    -- Stationary point found.
 Normal termination of Gaussian 09 at Tue Feb 19 13:12:12 2019.

 ----------------------------------------------------------------------
 #N Geom=AllCheck Guess=TCheck SCRF=Check Test GenChk RM062X/ChkBas Fre
 q
 ----------------------------------------------------------------------

 Structure from the checkpoint file:  "2Nitro4Fluro_OS_EtO.M062X_6-31pGd_opt_Pentadecane.chk"
 -------------------------------------------------
 2Nitro4Fluro_OS_EtO.M062X_6-31pGd_opt_Pentadecane
 -------------------------------------------------
 Charge = -1 Multiplicity = 1

                         Standard orientation:
 ---------------------------------------------------------------------
 Center     Atomic      Atomic             Coordinates (Angstroms)
 Number     Number       Type             X           Y           Z
 ---------------------------------------------------------------------
      1          6           0       -5.036617   -3.060363   -0.685926
      2          6           0       -4.086561   -1.985982   -0.165037
      3          6           0       -2.657633   -2.220914   -0.639738
      4          7           0       -1.789215   -1.173928   -0.141503
      5          6           0       -0.452656   -1.264134   -0.300247
      6          8           0        0.126497   -2.239214   -0.778195
      7          7           0        0.222913   -0.113944    0.122607
      8          6           0        1.580119    0.054212   -0.000668
      9          6           0        2.554711   -0.943256    0.209264
     10          6           0        2.048471    1.330794   -0.375400
     11          6           0        3.396854    1.535890   -0.560662
     12          6           0        4.356448    0.537868   -0.420752
     13          6           0        3.909251   -0.713577   -0.029700
     14          1           0       -6.059976   -2.888860   -0.336333
     15          1           0       -4.729549   -4.056968   -0.347492
     16          1           0       -4.097178   -1.968228    0.931619
     17          1           0       -4.417878   -0.994224   -0.495817
     18          1           0       -2.628064   -2.257043   -1.739494
     19          1           0       -2.289773   -3.189956   -0.281865
     20          1           0       -2.207599   -0.277176    0.162360
     21          1           0        1.333699    2.133402   -0.535620
     22          9           0        3.812924    2.769642   -0.925387
     23          7           0        2.233829   -2.228340    0.830303
     24          1           0        5.404756    0.750261   -0.595393
     25          8           0        2.889958   -3.202581    0.492576
     26          8           0        1.395634   -2.240373    1.712810
     27          1           0       -5.055854   -3.072576   -1.782036
     28          1           0       -0.323522    0.778015    0.125698
     29          1           0        4.606916   -1.528980    0.125916
     30          8           0       -1.011208    2.344284    0.044978
     31          8           0       -2.939053    1.320365    0.559131
     32          6           0       -2.232540    2.342355    0.365321
     33          6           0       -2.929445    3.698077    0.542714
     34          6           0       -2.053540    4.909662    0.254216
     35          1           0       -3.309524    3.727855    1.571667
     36          1           0       -3.816730    3.691522   -0.102210
     37          1           0       -1.177029    4.922113    0.908653
     38          1           0       -2.610780    5.842156    0.404898
     39          1           0       -1.686716    4.891731   -0.776629
 ---------------------------------------------------------------------

 SCF Done:  E(RM062X) =  -1145.49911681     A.U. after    1 cycles

 The electronic state is 1-A.
 Alpha  occ. eigenvalues --  -25.24213 -19.62661 -19.62609 -19.54526 -19.52828
 Alpha  occ. eigenvalues --  -19.52252 -14.95935 -14.72061 -14.70401 -10.61374
 Alpha  occ. eigenvalues --  -10.60629 -10.57574 -10.57348 -10.56007 -10.53537
 Alpha  occ. eigenvalues --  -10.52108 -10.51865 -10.51506 -10.49217 -10.49161
 Alpha  occ. eigenvalues --  -10.47990 -10.47720  -1.33494  -1.31252  -1.12554
 Alpha  occ. eigenvalues --   -1.10716  -1.08853  -0.99773  -0.99021  -0.96301
 Alpha  occ. eigenvalues --   -0.92663  -0.85771  -0.83214  -0.80799  -0.80056
 Alpha  occ. eigenvalues --   -0.74544  -0.72250  -0.67849  -0.66444  -0.65299
 Alpha  occ. eigenvalues --   -0.62995  -0.61558  -0.58907  -0.58309  -0.57618
 Alpha  occ. eigenvalues --   -0.55767  -0.54829  -0.53197  -0.52848  -0.52312
 Alpha  occ. eigenvalues --   -0.50758  -0.49592  -0.48119  -0.46747  -0.46655
 Alpha  occ. eigenvalues --   -0.46102  -0.45673  -0.45250  -0.44566  -0.43852
 Alpha  occ. eigenvalues --   -0.43032  -0.41714  -0.40730  -0.39453  -0.39144
 Alpha  occ. eigenvalues --   -0.39106  -0.38336  -0.37151  -0.35963  -0.34964
 Alpha  occ. eigenvalues --   -0.34529  -0.33884  -0.33827  -0.32776  -0.32249
 Alpha  occ. eigenvalues --   -0.31470  -0.28816  -0.26784  -0.25649  -0.25118
 Alpha  occ. eigenvalues --   -0.24961  -0.24397  -0.22045
 Alpha virt. eigenvalues --    0.01397   0.05438   0.06259   0.06955   0.07055
 Alpha virt. eigenvalues --    0.07735   0.08415   0.08469   0.08542   0.08921
 Alpha virt. eigenvalues --    0.09530   0.09935   0.10396   0.11016   0.11129

 Mulliken charges:
               1
     1  C   -0.780143
     2  C   -0.345762
     3  C   -0.141523
     4  N   -0.728068
     5  C    0.447048
     6  O   -0.568176
     7  N   -0.558458
     8  C   -0.125952
     9  C    0.374052
    10  C    0.219358
    11  C    0.045310
    12  C   -0.051095
    13  C   -0.650182
    14  H    0.207118
    15  H    0.209351
    16  H    0.229078
    17  H    0.238799
    18  H    0.208942
    19  H    0.223603
    20  H    0.521256
    21  H    0.298488
    22  F   -0.348636
    23  N   -0.182357
    24  H    0.237389
    25  O   -0.069869
    26  O   -0.062094
    27  H    0.208724
    28  H    0.505448
    29  H    0.255882
    30  O   -0.674852
    31  O   -0.654385
    32  C    0.659606
    33  C   -0.478322
    34  C   -0.726088
    35  H    0.218914
    36  H    0.216745
    37  H    0.219021
    38  H    0.185986
    39  H    0.215848
 Sum of Mulliken charges =  -1.00000

 Dipole moment (field-independent basis, Debye):
    X=              1.3204    Y=              1.4628    Z=             -1.2449  Tot=              2.3309
 Quadrupole moment (field-independent basis, Debye-Ang):
   XX=           -147.7188   YY=           -171.1975   ZZ=           -140.1642
   XY=             12.2149   XZ=              3.4773   YZ=              1.8291

  Exact polarizability: 290.525   9.791 248.055 -14.326  -7.769 152.694
 Approx polarizability: 282.791   1.568 255.345 -24.311  -7.440 183.141

                      1                      2                      3
                      A                      A                      A
 Frequencies --     20.1818                27.5207                31.9795
 Red. masses --      4.2590                 7.2614                 5.0305
 Frc consts  --      0.0010                 0.0032                 0.0030
 IR Inten    --      1.9678                 0.0186                 0.2516

                      4                      5                      6
                      A                      A                      A
 Frequencies --     49.1514                52.6422                64.6525
 Red. masses --      4.6461                 2.9327                 1.8540
 Frc consts  --      0.0066                 0.0048                 0.0046
 IR Inten    --      3.7159                 1.0273                 0.7447

                      7                      8                      9
                      A                      A                      A
 Frequencies --     68.5992                75.5371                83.0572
 Red. masses --      4.6908                 6.2094                 3.6208
 Frc consts  --      0.0130                 0.0209                 0.0147
 IR Inten    --      2.7576                 4.0972                 3.3199

                     10                     11                     12
                      A                      A                      A
 Frequencies --     87.4912               101.9312               104.8927
 Red. masses --      4.7153                 6.6559                 8.1025
 Frc consts  --      0.0213                 0.0407                 0.0525
 IR Inten    --      4.6397                 0.3463                 5.1898

                     13                     14                     15
                      A                      A                      A
 Frequencies --    124.3159               157.2635               176.6853
 Red. masses --      6.6478                 3.5430                 6.8009
 Frc consts  --      0.0605                 0.0516                 0.1251
 IR Inten    --      6.6544                 9.9816                22.2178

                     16                     17                     18
                      A                      A                      A
 Frequencies --    198.8096               218.9145               229.3953
 Red. masses --      5.7151                 5.4789                 1.1045
 Frc consts  --      0.1331                 0.1547                 0.0342
 IR Inten    --      8.0663                11.5355                 0.8566

                     19                     20                     21
                      A                      A                      A
 Frequencies --    243.3354               245.9797               266.5816
 Red. masses --      1.1576                 6.5545                 6.0694
 Frc consts  --      0.0404                 0.2337                 0.2541
 IR Inten    --      0.2737                 2.3343                 6.4453

                     22                     23                     24
                      A                      A                      A
 Frequencies --    294.1370               309.2572               322.4219
 Red. masses --      7.0841                 5.0245                 5.1552
 Frc consts  --      0.3611                 0.2831                 0.3158
 IR Inten    --      5.8425                22.4805                12.4815

                     25                     26                     27
                      A                      A                      A
 Frequencies --    338.8815               368.5682               444.0569
 Red. masses --      5.3223                11.4154                 5.1139
 Frc consts  --      0.3601                 0.9136                 0.5941
 IR Inten    --     22.5117                 0.3728                 8.1659

                     28                     29                     30
                      A                      A                      A
 Frequencies --    466.4197               480.9182               519.1544
 Red. masses --      4.4521                 3.9746                 5.5752
 Frc consts  --      0.5706                 0.5416                 0.8853
 IR Inten    --      3.5300                 3.8855                22.0436

                     31                     32                     33
                      A                      A                      A
 Frequencies --    563.7111               585.3573               629.1533
 Red. masses --      6.4871                 1.9776                 7.6595
 Frc consts  --      1.2145                 0.3992                 1.7863
 IR Inten    --      1.9689                 1.6513                29.3343

                     34                     35                     36
                      A                      A                      A
 Frequencies --    635.8006               644.0632               658.4866
 Red. masses --      4.1898                 5.2473                 4.6450
 Frc consts  --      0.9979                 1.2825                 1.1867
 IR Inten    --      2.6890                10.4507                51.0222

                     37                     38                     39
                      A                      A                      A
 Frequencies --    708.9880               744.7026               756.3768
 Red. masses --      4.8686                 2.5999                 1.9608
 Frc consts  --      1.4419                 0.8495                 0.6609
 IR Inten    --      3.7102                56.8053                13.9209

                     40                     41                     42
                      A                      A                      A
 Frequencies --    765.4540               777.1776               789.4018
 Red. masses --      1.8422                 3.4957                 2.8689
 Frc consts  --      0.6360                 1.2440                 1.0533
 IR Inten    --     21.3603                29.5406                21.8633

                     43                     44                     45
                      A                      A                      A
 Frequencies --    821.4480               827.2519               839.3927
 Red. masses --      1.4775                 1.6941                 2.3162
 Frc consts  --      0.5874                 0.6831                 0.9615
 IR Inten    --      3.4408                37.6211                19.1716

                     46                     47                     48
                      A                      A                      A
 Frequencies --    875.4230               890.5413               902.1537
 Red. masses --      9.2513                 2.8577                 1.2803
 Frc consts  --      4.1772                 1.3353                 0.6140
 IR Inten    --     25.4340                37.4979                10.1558

                     49                     50                     51
                      A                      A                      A
 Frequencies --    909.8901               924.8401               943.5820
 Red. masses --      1.4734                 1.6857                 1.3151
 Frc consts  --      0.7187                 0.8495                 0.6899
 IR Inten    --     14.3681                30.0243               124.7465

                     52                     53                     54
                      A                      A                      A
 Frequencies --    974.5199              1002.6437              1026.3355
 Red. masses --      1.3399                 2.9596                 1.6640
 Frc consts  --      0.7498                 1.7530                 1.0327
 IR Inten    --      8.9628                57.7059                 2.7520

                     55                     56                     57
                      A                      A                      A
 Frequencies --   1060.2176              1087.1503              1108.8803
 Red. masses --      3.2241                 2.5419                 1.7729
 Frc consts  --      2.1352                 1.7700                 1.2844
 IR Inten    --     30.1718                20.4538                 0.7926

                     58                     59                     60
                      A                      A                      A
 Frequencies --   1112.9114              1119.6556              1156.8883
 Red. masses --      2.3600                 1.9388                 2.1617
 Frc consts  --      1.7222                 1.4321                 1.7046
 IR Inten    --      5.9108                17.3705                18.7284

                     61                     62                     63
                      A                      A                      A
 Frequencies --   1170.8568              1178.6635              1186.3516
 Red. masses --      2.0530                 1.8878                 2.3265
 Frc consts  --      1.6582                 1.5452                 1.9292
 IR Inten    --     25.1717                 0.4577                20.8151

                     64                     65                     66
                      A                      A                      A
 Frequencies --   1229.2989              1276.2648              1279.3881
 Red. masses --      2.5120                 1.2081                 1.6876
 Frc consts  --      2.2366                 1.1594                 1.6275
 IR Inten    --    208.0382                 6.8477                37.9059

                     67                     68                     69
                      A                      A                      A
 Frequencies --   1287.8103              1312.2200              1325.6149
 Red. masses --      1.1825                 1.8976                 1.2190
 Frc consts  --      1.1554                 1.9252                 1.2621
 IR Inten    --      0.1695               357.1759                47.9494

                     70                     71                     72
                      A                      A                      A
 Frequencies --   1335.5495              1339.4521              1363.7887
 Red. masses --      2.4270                 1.6579                 2.0604
 Frc consts  --      2.5506                 1.7525                 2.2579
 IR Inten    --     90.2594                32.9838               217.7946

                     73                     74                     75
                      A                      A                      A
 Frequencies --   1389.7209              1425.5941              1426.0171
 Red. masses --      4.1872                 1.3527                 1.3457
 Frc consts  --      4.7647                 1.6198                 1.6123
 IR Inten    --     73.8504                 4.5863                26.0609

                     76                     77                     78
                      A                      A                      A
 Frequencies --   1435.1624              1473.1710              1479.1633
 Red. masses --      1.5656                 2.6936                 8.3099
 Frc consts  --      1.8999                 3.4442                10.7121
 IR Inten    --      1.4472               411.4299               171.2837

                     79                     80                     81
                      A                      A                      A
 Frequencies --   1484.2101              1487.0160              1511.1636
 Red. masses --      2.9880                 1.6455                 1.0410
 Frc consts  --      3.8781                 2.1438                 1.4006
 IR Inten    --     46.2012                47.9296                 7.5674

                     82                     83                     84
                      A                      A                      A
 Frequencies --   1512.1716              1520.4990              1522.9982
 Red. masses --      1.0590                 1.0401                 1.1070
 Frc consts  --      1.4268                 1.4167                 1.5129
 IR Inten    --      8.8017                 8.4310                67.2711

                     85                     86                     87
                      A                      A                      A
 Frequencies --   1524.2080              1537.1483              1547.4091
 Red. masses --      1.0813                 1.0923                 3.7748
 Frc consts  --      1.4801                 1.5207                 5.3255
 IR Inten    --      4.9068                20.6630               429.7521

                     88                     89                     90
                      A                      A                      A
 Frequencies --   1615.3808              1643.7830              1670.8713
 Red. masses --      2.8672                 2.3618                 4.0418
 Frc consts  --      4.4081                 3.7599                 6.6483
 IR Inten    --     68.5158                95.3884               685.8011

                     91                     92                     93
                      A                      A                      A
 Frequencies --   1683.4584              1699.0367              1722.4345
 Red. masses --      5.4637                 4.1171                 4.8633
 Frc consts  --      9.1231                 7.0024                 8.5010
 IR Inten    --    356.2140               908.5562               161.2747

                     94                     95                     96
                      A                      A                      A
 Frequencies --   1790.8588              2992.9058              3037.2406
 Red. masses --      4.1963                 1.0976                 1.0688
 Frc consts  --      7.9294                 5.7929                 5.8089
 IR Inten    --    551.4557              1643.3749                74.6103

                     97                     98                     99
                      A                      A                      A
 Frequencies --   3070.4927              3072.4749              3078.8464
 Red. masses --      1.0367                 1.0479                 1.0538
 Frc consts  --      5.7588                 5.8285                 5.8854
 IR Inten    --     46.0376                60.8544                18.8931

                    100                    101                    102
                      A                      A                      A
 Frequencies --   3080.4630              3094.0153              3111.4310
 Red. masses --      1.0615                 1.0931                 1.1011
 Frc consts  --      5.9347                 6.1652                 6.2808
 IR Inten    --     22.4549                40.1014                15.1358

                    103                    104                    105
                      A                      A                      A
 Frequencies --   3118.0930              3141.4846              3142.1272
 Red. masses --      1.1034                 1.1036                 1.0972
 Frc consts  --      6.3209                 6.4173                 6.3827
 IR Inten    --      8.0055                74.8365                45.7702

                    106                    107                    108
                      A                      A                      A
 Frequencies --   3145.7714              3163.5517              3214.7968
 Red. masses --      1.1014                 1.1024                 1.0908
 Frc consts  --      6.4219                 6.5001                 6.6423
 IR Inten    --     42.4801                42.7072              1491.3135

                    109                    110                    111
                      A                      A                      A
 Frequencies --   3240.2899              3255.2815              3266.8107
 Red. masses --      1.0936                 1.0892                 1.0967
 Frc consts  --      6.7654                 6.8004                 6.8959
 IR Inten    --     71.4364                 0.1196                 1.6063

 - Thermochemistry -
 -------------------
 Temperature   298.150 Kelvin.  Pressure   1.00000 Atm.
 Atom     1 has atomic number  6 and mass  12.00000

 Molecular mass:   314.11522 amu.
 Principal axes and moments of inertia in atomic units:
                           1         2         3
     Eigenvalues --  6449.568379211.41373**********
           X            0.99989   0.01427   0.00463
           Y           -0.01433   0.99981   0.01331
           Z           -0.00444  -0.01337   0.99990
 This molecule is an asymmetric top.
 Rotational symmetry number  1.
 Warning -- assumption of classical behavior for rotation
           may cause significant error
 Rotational temperatures (Kelvin)      0.01343     0.00940     0.00588
 Rotational constants (GHZ):           0.27982     0.19592     0.12251
 Zero-point vibrational energy     805253.9 (Joules/Mol)
                                  192.46030 (Kcal/Mol)
 Warning -- explicit consideration of  32 degrees of freedom as
           vibrations may cause significant error
 Vibrational temperatures:     29.04    39.60    46.01    70.72    75.74
          (Kelvin)             93.02    98.70   108.68   119.50   125.88
                              146.66   150.92   178.86   226.27   254.21
                              286.04   314.97   330.05   350.10   353.91
                              383.55   423.20   444.95   463.89   487.57
                              530.29   638.90   671.07   691.93   746.95
                              811.05   842.20   905.21   914.77   926.66
                              947.41  1020.07  1071.46  1088.26  1101.32
                             1118.18  1135.77  1181.88  1190.23  1207.70
                             1259.54  1281.29  1298.00  1309.13  1330.64
                             1357.60  1402.11  1442.58  1476.67  1525.41
                             1564.16  1595.43  1601.23  1610.93  1664.50
                             1684.60  1695.83  1706.89  1768.68  1836.26
                             1840.75  1852.87  1887.99  1907.26  1921.56
                             1927.17  1962.19  1999.50  2051.11  2051.72
                             2064.88  2119.56  2128.18  2135.44  2139.48
                             2174.22  2175.67  2187.66  2191.25  2192.99
                             2211.61  2226.37  2324.17  2365.03  2404.01
                             2422.12  2444.53  2478.20  2576.64  4306.12
                             4369.91  4417.75  4420.60  4429.77  4432.09
                             4451.59  4476.65  4486.23  4519.89  4520.81
                             4526.06  4551.64  4625.37  4662.05  4683.62
                             4700.21

 Zero-point correction=                           0.306705 (Hartree/Particle)
 Thermal correction to Energy=                    0.329606
 Thermal correction to Enthalpy=                  0.330551
 Thermal correction to Gibbs Free Energy=         0.250721
 Sum of electronic and zero-point Energies=          -1145.192412
 Sum of electronic and thermal Energies=             -1145.169510
 Sum of electronic and thermal Enthalpies=           -1145.168566
 Sum of electronic and thermal Free Energies=        -1145.248395

                     E (Thermal)             CV                S
                      KCal/Mol        Cal/Mol-Kelvin    Cal/Mol-Kelvin
 Total                  206.831             80.591            168.014
 Electronic               0.000              0.000              0.000
 Translational            0.889              2.981             43.130
 Rotational               0.889              2.981             35.125
 Vibrational            205.054             74.629             89.760
 Vibration     1          0.593              1.986              6.616
 Vibration     2          0.593              1.984              6.001
 Vibration     3          0.594              1.983              5.703
 Vibration     4          0.595              1.978              4.851
 Vibration     5          0.596              1.977              4.716
 Vibration     6          0.597              1.971              4.310
 Vibration     7          0.598              1.969              4.193
 Vibration     8          0.599              1.965              4.004
 Vibration     9          0.600              1.961              3.817
 Vibration    10          0.601              1.958              3.715
 Vibration    11          0.604              1.948              3.417
 Vibration    12          0.605              1.945              3.361
 Vibration    13          0.610              1.929              3.032
 Vibration    14          0.621              1.895              2.582
 Vibration    15          0.628              1.871              2.363
 Vibration    16          0.637              1.842              2.144
 Vibration    17          0.647              1.812              1.968
 Vibration    18          0.652              1.796              1.884
 Vibration    19          0.659              1.774              1.778
 Vibration    20          0.660              1.769              1.759
 Vibration    21          0.672              1.734              1.618
 Vibration    22          0.689              1.685              1.450
 Vibration    23          0.699              1.656              1.366
 Vibration    24          0.707              1.631              1.298
 Vibration    25          0.719              1.598              1.217
 Vibration    26          0.741              1.537              1.086
 Vibration    27          0.804              1.374              0.814
 Vibration    28          0.824              1.325              0.748
 Vibration    29          0.837              1.292              0.708
 Vibration    30          0.874              1.208              0.612
 Vibration    31          0.919              1.110              0.516
 Vibration    32          0.942              1.063              0.476

 Optimization completed.
    -- Stationary point found.
 Normal termination of Gaussian 09 at Tue Feb 19 14:05:36 2019.
