 Gaussian 09, Revision E.01,

 ----------------------------------------------------------------------
 # M062X/Gen 6D SCF=Tight INT(grid=ultrafine) OPT IOP(2/17=4) maxdisk=2
 684354560
 ----------------------------------------------------------------------

 -------------------------------------
 2Nitro4Fluro_OS_EtO.M062X_6-31pGd_opt
 -------------------------------------
 Symbolic Z-matrix:
 Charge = -1 Multiplicity = 1

 SCF Done:  E(RM062X) =  -1145.38381899     A.U. after   17 cycles
 SCF Done:  E(RM062X) =  -1145.42326260     A.U. after   18 cycles
 SCF Done:  E(RM062X) =  -1145.39014958     A.U. after   20 cycles
 SCF Done:  E(RM062X) =  -1145.42672959     A.U. after   15 cycles
 SCF Done:  E(RM062X) =  -1145.43550616     A.U. after   19 cycles
 SCF Done:  E(RM062X) =  -1145.44288440     A.U. after   19 cycles
 SCF Done:  E(RM062X) =  -1145.43930067     A.U. after   17 cycles
 SCF Done:  E(RM062X) =  -1145.44816822     A.U. after   13 cycles
 SCF Done:  E(RM062X) =  -1145.44820177     A.U. after   19 cycles
 SCF Done:  E(RM062X) =  -1145.45323265     A.U. after   16 cycles
 SCF Done:  E(RM062X) =  -1145.45625117     A.U. after   14 cycles
 SCF Done:  E(RM062X) =  -1145.45625512     A.U. after   13 cycles
 SCF Done:  E(RM062X) =  -1145.45625872     A.U. after   13 cycles
 SCF Done:  E(RM062X) =  -1145.45626203     A.U. after   12 cycles
 SCF Done:  E(RM062X) =  -1145.45626427     A.U. after   14 cycles
 SCF Done:  E(RM062X) =  -1145.45626527     A.U. after   12 cycles
 SCF Done:  E(RM062X) =  -1145.45626561     A.U. after   11 cycles
 SCF Done:  E(RM062X) =  -1145.45626568     A.U. after   10 cycles
 Optimization completed.
    -- Stationary point found.
 Normal termination of Gaussian 09 at Tue Feb 19 12:40:20 2019.
 Gaussian 09:  ES64L-G09RevE.01 30-Nov-2015

 ----------------------------------------------------------------------
 # M062X/Gen 6D SCF=Tight INT(grid=ultrafine) OPT IOP(2/17=4) Freq=Nora
 man maxdisk=2684354560 geom=check guess=read IOP(2/17=4)
 ----------------------------------------------------------------------

 -------------------------------------
 2Nitro4Fluro_OS_EtO.M062X_6-31pGd_opt
 -------------------------------------
 Structure from the checkpoint file:  "2Nitro4Fluro_OS_EtO.M062X_6-31pGd_opt.chk"
 Charge = -1 Multiplicity = 1

 SCF Done:  E(RM062X) =  -1145.45626568     A.U. after    2 cycles
 Optimization completed.
    -- Stationary point found.
 Normal termination of Gaussian 09 at Tue Feb 19 12:41:32 2019.

 ----------------------------------------------------------------------
 #N Geom=AllCheck Guess=TCheck SCRF=Check Test GenChk RM062X/ChkBas Fre
 q
 ----------------------------------------------------------------------

 Structure from the checkpoint file:  "2Nitro4Fluro_OS_EtO.M062X_6-31pGd_opt.chk"
 -------------------------------------
 2Nitro4Fluro_OS_EtO.M062X_6-31pGd_opt
 -------------------------------------
 Charge = -1 Multiplicity = 1

                         Standard orientation:
 ---------------------------------------------------------------------
 Center     Atomic      Atomic             Coordinates (Angstroms)
 Number     Number       Type             X           Y           Z
 ---------------------------------------------------------------------
      1          6           0       -5.009594   -3.080647   -0.666827
      2          6           0       -4.032488   -2.100654   -0.021369
      3          6           0       -2.648483   -2.182043   -0.656857
      4          7           0       -1.775867   -1.191813   -0.066033
      5          6           0       -0.437988   -1.271978   -0.249512
      6          8           0        0.140525   -2.219315   -0.775205
      7          7           0        0.232885   -0.132323    0.213838
      8          6           0        1.579612    0.064635    0.051718
      9          6           0        2.578001   -0.925370    0.168384
     10          6           0        2.011162    1.371377   -0.267023
     11          6           0        3.346200    1.612343   -0.495994
     12          6           0        4.326113    0.623796   -0.452955
     13          6           0        3.916255   -0.655457   -0.113740
     14          1           0       -5.997871   -3.027532   -0.198215
     15          1           0       -4.649837   -4.112677   -0.577063
     16          1           0       -3.938463   -2.307383    1.051557
     17          1           0       -4.406103   -1.073112   -0.109332
     18          1           0       -2.730191   -2.034312   -1.746535
     19          1           0       -2.205056   -3.172018   -0.503936
     20          1           0       -2.196530   -0.282963    0.198982
     21          1           0        1.272840    2.165055   -0.351139
     22          9           0        3.731060    2.871354   -0.806373
     23          7           0        2.311704   -2.247648    0.738530
     24          1           0        5.362027    0.865755   -0.659677
     25          8           0        2.988546   -3.183288    0.337236
     26          8           0        1.500791   -2.322738    1.641528
     27          1           0       -5.133816   -2.864919   -1.734538
     28          1           0       -0.326649    0.750202    0.256806
     29          1           0        4.629276   -1.468221   -0.033387
     30          8           0       -1.035080    2.309564    0.179944
     31          8           0       -3.020413    1.292608    0.442297
     32          6           0       -2.288818    2.307278    0.328335
     33          6           0       -3.000501    3.668992    0.376974
     34          6           0       -2.076273    4.871098    0.227293
     35          1           0       -3.548989    3.708886    1.326249
     36          1           0       -3.766366    3.659046   -0.408447
     37          1           0       -1.319666    4.876713    1.017115
     38          1           0       -2.638273    5.812094    0.273464
     39          1           0       -1.541057    4.830820   -0.725851
 ---------------------------------------------------------------------

 SCF Done:  E(RM062X) =  -1145.45626568     A.U. after    1 cycles

 The electronic state is 1-A.
 Alpha  occ. eigenvalues --  -25.19178 -19.57150 -19.57053 -19.49069 -19.47366
 Alpha  occ. eigenvalues --  -19.46755 -14.90449 -14.66716 -14.64892 -10.55936
 Alpha  occ. eigenvalues --  -10.55586 -10.52375 -10.51955 -10.50795 -10.48580
 Alpha  occ. eigenvalues --  -10.47298 -10.46861 -10.46343 -10.45206 -10.44461
 Alpha  occ. eigenvalues --  -10.43034 -10.42989  -1.28439  -1.25740  -1.07086
 Alpha  occ. eigenvalues --   -1.05308  -1.03381  -0.94482  -0.93634  -0.90981
 Alpha  occ. eigenvalues --   -0.87501  -0.80512  -0.78455  -0.75791  -0.75089
 Alpha  occ. eigenvalues --   -0.69427  -0.67355  -0.62801  -0.61449  -0.60190
 Alpha  occ. eigenvalues --   -0.58085  -0.56295  -0.53550  -0.53035  -0.52498
 Alpha  occ. eigenvalues --   -0.50381  -0.49341  -0.48159  -0.47803  -0.47122
 Alpha  occ. eigenvalues --   -0.45579  -0.44468  -0.43051  -0.41676  -0.41602
 Alpha  occ. eigenvalues --   -0.41012  -0.40510  -0.40298  -0.39510  -0.38902
 Alpha  occ. eigenvalues --   -0.37800  -0.36994  -0.35554  -0.34240  -0.34154
 Alpha  occ. eigenvalues --   -0.34101  -0.33418  -0.32498  -0.31048  -0.30481
 Alpha  occ. eigenvalues --   -0.29636  -0.28912  -0.28423  -0.27331  -0.26782
 Alpha  occ. eigenvalues --   -0.26125  -0.23427  -0.21606  -0.20170  -0.19740
 Alpha  occ. eigenvalues --   -0.19507  -0.18881  -0.16743
 Alpha virt. eigenvalues --    0.06805   0.10060   0.10422   0.10460   0.11110
 Alpha virt. eigenvalues --    0.11741   0.12501   0.12953   0.13124   0.13548
 Alpha virt. eigenvalues --    0.13936   0.14197   0.14776   0.15387   0.15604

 Mulliken charges:
               1
     1  C   -0.748338
     2  C   -0.325578
     3  C   -0.215854
     4  N   -0.655878
     5  C    0.409511
     6  O   -0.551897
     7  N   -0.534550
     8  C   -0.157568
     9  C    0.364771
    10  C    0.324399
    11  C   -0.004023
    12  C   -0.006432
    13  C   -0.683113
    14  H    0.195735
    15  H    0.200683
    16  H    0.215571
    17  H    0.249804
    18  H    0.194087
    19  H    0.226338
    20  H    0.506620
    21  H    0.302238
    22  F   -0.346932
    23  N   -0.173218
    24  H    0.210682
    25  O   -0.066051
    26  O   -0.055967
    27  H    0.202005
    28  H    0.502699
    29  H    0.240952
    30  O   -0.667633
    31  O   -0.638465
    32  C    0.664893
    33  C   -0.489566
    34  C   -0.716800
    35  H    0.210702
    36  H    0.209869
    37  H    0.217651
    38  H    0.172834
    39  H    0.215818
 Sum of Mulliken charges =  -1.00000

 Dipole moment (field-independent basis, Debye):
    X=              1.1519    Y=              1.3352    Z=             -1.0819  Tot=              2.0688
 Quadrupole moment (field-independent basis, Debye-Ang):
   XX=           -155.8983   YY=           -173.4575   ZZ=           -139.8804
   XY=             11.6101   XZ=              2.4815   YZ=              0.7590

  Exact polarizability: 263.601   9.439 224.300 -11.493  -4.281 136.998
 Approx polarizability: 285.306   2.810 256.257 -25.164  -4.288 183.983

                      1                      2                      3
                      A                      A                      A
 Frequencies --     15.8728                23.1604                23.6337
 Red. masses --      2.3196                 3.5413                 4.3896
 Frc consts  --      0.0003                 0.0011                 0.0014
 IR Inten    --      0.0680                 0.3015                 1.2624

                      4                      5                      6
                      A                      A                      A
 Frequencies --     42.4119                45.4777                55.6284
 Red. masses --      3.1532                 2.6592                 5.0576
 Frc consts  --      0.0033                 0.0032                 0.0092
 IR Inten    --      0.3559                 1.9138                 1.4128

                      7                      8                      9
                      A                      A                      A
 Frequencies --     60.4494                70.6541                78.0297
 Red. masses --      4.1607                 8.7493                 4.7335
 Frc consts  --      0.0090                 0.0257                 0.0170
 IR Inten    --      4.4002                 0.9325                 2.9418

                     10                     11                     12
                      A                      A                      A
 Frequencies --     89.3040                97.6060               103.7753
 Red. masses --      5.3066                 8.0213                 7.6730
 Frc consts  --      0.0249                 0.0450                 0.0487
 IR Inten    --      2.9254                 1.0371                 4.3790

                     13                     14                     15
                      A                      A                      A
 Frequencies --    123.1757               153.7789               186.5998
 Red. masses --      6.9852                 3.4611                 8.2787
 Frc consts  --      0.0624                 0.0482                 0.1698
 IR Inten    --      5.7470                 8.0000                17.8331

                     16                     17                     18
                      A                      A                      A
 Frequencies --    210.2851               217.2271               221.7910
 Red. masses --      5.2043                 1.1777                 3.1977
 Frc consts  --      0.1356                 0.0327                 0.0927
 IR Inten    --     10.3940                 0.7266                 5.3712

                     19                     20                     21
                      A                      A                      A
 Frequencies --    239.7372               245.1755               265.0887
 Red. masses --      1.4035                 4.3707                 6.0526
 Frc consts  --      0.0475                 0.1548                 0.2506
 IR Inten    --      0.7067                 1.7367                 5.0883

                     22                     23                     24
                      A                      A                      A
 Frequencies --    293.0456               306.4585               321.1215
 Red. masses --      5.9147                 5.5986                 5.5650
 Frc consts  --      0.2993                 0.3098                 0.3381
 IR Inten    --      2.8853                24.4110                 8.8939

                     25                     26                     27
                      A                      A                      A
 Frequencies --    345.2894               369.8042               444.1394
 Red. masses --      5.3112                11.3619                 5.1622
 Frc consts  --      0.3731                 0.9155                 0.6000
 IR Inten    --     17.9054                 0.3871                 7.3119

                     28                     29                     30
                      A                      A                      A
 Frequencies --    468.5692               481.2955               519.3209
 Red. masses --      4.4795                 3.9835                 5.6468
 Frc consts  --      0.5795                 0.5437                 0.8973
 IR Inten    --      2.6954                 3.2479                17.3558

                     31                     32                     33
                      A                      A                      A
 Frequencies --    564.8437               583.3432               629.6378
 Red. masses --      6.4933                 1.9836                 7.7480
 Frc consts  --      1.2206                 0.3977                 1.8098
 IR Inten    --      1.6941                 1.1576                21.9596

                     34                     35                     36
                      A                      A                      A
 Frequencies --    636.4537               645.0049               658.0783
 Red. masses --      4.3227                 5.0382                 4.6897
 Frc consts  --      1.0317                 1.2349                 1.1966
 IR Inten    --      2.7876                 8.9743                38.8942

                     37                     38                     39
                      A                      A                      A
 Frequencies --    707.9463               744.6333               754.5976
 Red. masses --      4.8654                 3.3063                 1.3081
 Frc consts  --      1.4367                 1.0801                 0.4388
 IR Inten    --      2.2429                25.5436                12.6939

                     40                     41                     42
                      A                      A                      A
 Frequencies --    766.5869               775.2703               792.8155
 Red. masses --      3.6499                 3.0889                 3.4436
 Frc consts  --      1.2637                 1.0939                 1.2753
 IR Inten    --     33.5645                28.2890                27.7123

                     43                     44                     45
                      A                      A                      A
 Frequencies --    820.5080               828.3401               855.6263
 Red. masses --      1.4340                 2.1537                 1.6975
 Frc consts  --      0.5688                 0.8707                 0.7322
 IR Inten    --      2.4277                18.9896                38.0770

                     46                     47                     48
                      A                      A                      A
 Frequencies --    875.2861               892.0479               897.5123
 Red. masses --      8.4080                 3.0413                 1.2405
 Frc consts  --      3.7953                 1.4259                 0.5888
 IR Inten    --     27.1115                31.5743                 7.3568

                     49                     50                     51
                      A                      A                      A
 Frequencies --    914.7216               925.3943               954.1043
 Red. masses --      1.4939                 1.6496                 1.3698
 Frc consts  --      0.7365                 0.8323                 0.7347
 IR Inten    --      9.4058                10.4721               102.6639

                     52                     53                     54
                      A                      A                      A
 Frequencies --    968.7054              1005.5975              1022.2861
 Red. masses --      1.3332                 2.6640                 1.6734
 Frc consts  --      0.7371                 1.5872                 1.0304
 IR Inten    --     18.0085                47.5383                 1.5789

                     55                     56                     57
                      A                      A                      A
 Frequencies --   1059.5057              1086.8478              1107.6763
 Red. masses --      2.9871                 2.5811                 1.7739
 Frc consts  --      1.9757                 1.7964                 1.2823
 IR Inten    --     20.5673                19.3253                 0.7422

                     58                     59                     60
                      A                      A                      A
 Frequencies --   1112.5439              1118.7841              1155.0825
 Red. masses --      2.3841                 1.9870                 2.1312
 Frc consts  --      1.7386                 1.4653                 1.6753
 IR Inten    --      4.8554                15.1222                 4.5205

                     61                     62                     63
                      A                      A                      A
 Frequencies --   1169.8318              1177.7916              1191.2422
 Red. masses --      1.9527                 2.0289                 2.3577
 Frc consts  --      1.5744                 1.6582                 1.9712
 IR Inten    --     33.4330                 2.2495                24.7354

                     64                     65                     66
                      A                      A                      A
 Frequencies --   1234.7787              1275.1236              1280.4381
 Red. masses --      2.4215                 1.2187                 1.7170
 Frc consts  --      2.1753                 1.1675                 1.6586
 IR Inten    --    171.4983                23.1872                29.4646

                     67                     68                     69
                      A                      A                      A
 Frequencies --   1286.2516              1314.4983              1323.9131
 Red. masses --      1.1866                 1.7972                 1.2152
 Frc consts  --      1.1567                 1.8296                 1.2549
 IR Inten    --      0.1977               283.7558                54.3517

                     70                     71                     72
                      A                      A                      A
 Frequencies --   1334.8417              1338.6242              1367.9705
 Red. masses --      1.6323                 2.9503                 1.9753
 Frc consts  --      1.7136                 3.1148                 2.1779
 IR Inten    --     35.7324                77.5580               174.7109

                     73                     74                     75
                      A                      A                      A
 Frequencies --   1391.3001              1421.6621              1423.5082
 Red. masses --      3.9980                 1.3245                 1.3167
 Frc consts  --      4.5596                 1.5772                 1.5720
 IR Inten    --     63.6852                22.6488                 3.4321

                     76                     77                     78
                      A                      A                      A
 Frequencies --   1434.0983              1471.2410              1480.3217
 Red. masses --      1.6209                 3.8133                10.9780
 Frc consts  --      1.9641                 4.8632                14.1738
 IR Inten    --      0.5456               411.9650               151.8696

                     79                     80                     81
                      A                      A                      A
 Frequencies --   1486.8368              1490.9889              1511.3760
 Red. masses --      3.5296                 1.2705                 1.0396
 Frc consts  --      4.5973                 1.6641                 1.3991
 IR Inten    --      4.5780                19.7105                 5.0981

                     82                     83                     84
                      A                      A                      A
 Frequencies --   1517.0964              1523.1172              1523.4780
 Red. masses --      1.0601                 1.0980                 1.0457
 Frc consts  --      1.4376                 1.5008                 1.4300
 IR Inten    --      2.4752                46.0495                18.3671

                     85                     86                     87
                      A                      A                      A
 Frequencies --   1527.8344              1538.9325              1551.8256
 Red. masses --      1.0737                 1.0885                 3.8436
 Frc consts  --      1.4767                 1.5188                 5.4535
 IR Inten    --      1.1459                13.3557               332.2310

                     88                     89                     90
                      A                      A                      A
 Frequencies --   1616.4885              1645.9788              1681.7852
 Red. masses --      2.8236                 2.6415                 4.8494
 Frc consts  --      4.3471                 4.2165                 8.0812
 IR Inten    --     45.4452                33.5864               436.7802

                     91                     92                     93
                      A                      A                      A
 Frequencies --   1691.3290              1709.8825              1728.8659
 Red. masses --      2.8605                 5.1595                 4.7779
 Frc consts  --      4.8211                 8.8877                 8.4141
 IR Inten    --    238.8812               951.8679               153.3299

                     94                     95                     96
                      A                      A                      A
 Frequencies --   1804.5723              3002.0668              3013.1579
 Red. masses --      4.3663                 1.0972                 1.0722
 Frc consts  --      8.3774                 5.8261                 5.7357
 IR Inten    --    441.0732              1311.4064                74.2013

                     97                     98                     99
                      A                      A                      A
 Frequencies --   3064.4681              3066.1789              3074.9682
 Red. masses --      1.0362                 1.0455                 1.0567
 Frc consts  --      5.7334                 5.7912                 5.8871
 IR Inten    --     55.4132                62.9554                19.9484

                    100                    101                    102
                      A                      A                      A
 Frequencies --   3078.3038              3104.0341              3107.0792
 Red. masses --      1.0608                 1.0945                 1.1014
 Frc consts  --      5.9223                 6.2131                 6.2644
 IR Inten    --     18.4872                28.7148                15.2980

                    103                    104                    105
                      A                      A                      A
 Frequencies --   3118.3332              3138.0252              3138.1733
 Red. masses --      1.0987                 1.1028                 1.0956
 Frc consts  --      6.2946                 6.3984                 6.3571
 IR Inten    --      9.0848                59.5962                46.7153

                    106                    107                    108
                      A                      A                      A
 Frequencies --   3139.1150              3160.9993              3209.7705
 Red. masses --      1.1015                 1.1022                 1.0898
 Frc consts  --      6.3953                 6.4890                 6.6152
 IR Inten    --     53.6451                36.5266              1313.5850

                    109                    110                    111
                      A                      A                      A
 Frequencies --   3230.7757              3252.3254              3264.9869
 Red. masses --      1.0938                 1.0886                 1.0960
 Frc consts  --      6.7267                 6.7846                 6.8838
 IR Inten    --    147.2123                 0.6845                 3.1021

 - Thermochemistry -
 -------------------
 Temperature   298.150 Kelvin.  Pressure   1.00000 Atm.
 Atom     1 has atomic number  6 and mass  12.00000

 Molecular mass:   314.11522 amu.
 Principal axes and moments of inertia in atomic units:
                           1         2         3
     Eigenvalues --  6424.918739174.11171**********
           X            0.99988   0.01520   0.00408
           Y           -0.01525   0.99982   0.01163
           Z           -0.00390  -0.01169   0.99992
 This molecule is an asymmetric top.
 Rotational symmetry number  1.
 Warning -- assumption of classical behavior for rotation
           may cause significant error
 Rotational temperatures (Kelvin)      0.01348     0.00944     0.00585
 Rotational constants (GHZ):           0.28090     0.19672     0.12197
 Zero-point vibrational energy     805136.3 (Joules/Mol)
                                  192.43219 (Kcal/Mol)
 Warning -- explicit consideration of  32 degrees of freedom as
           vibrations may cause significant error
 Vibrational temperatures:     22.84    33.32    34.00    61.02    65.43
          (Kelvin)             80.04    86.97   101.66   112.27   128.49
                              140.43   149.31   177.22   221.25   268.48
                              302.55   312.54   319.11   344.93   352.75
                              381.40   421.63   440.92   462.02   496.79
                              532.07   639.02   674.17   692.48   747.19
                              812.68   839.30   905.91   915.71   928.02
                              946.83  1018.58  1071.36  1085.70  1102.95
                             1115.44  1140.68  1180.53  1191.80  1231.05
                             1259.34  1283.46  1291.32  1316.08  1331.43
                             1372.74  1393.75  1446.83  1470.84  1524.39
                             1563.73  1593.70  1600.70  1609.68  1661.90
                             1683.12  1694.58  1713.93  1776.57  1834.62
                             1842.26  1850.63  1891.27  1904.81  1920.54
                             1925.98  1968.20  2001.77  2045.45  2048.11
                             2063.34  2116.79  2129.85  2139.22  2145.20
                             2174.53  2182.76  2191.42  2191.94  2198.21
                             2214.18  2232.73  2325.76  2368.19  2419.71
                             2433.44  2460.14  2487.45  2596.37  4319.30
                             4335.26  4409.08  4411.54  4424.19  4428.99
                             4466.01  4470.39  4486.58  4514.91  4515.13
                             4516.48  4547.97  4618.14  4648.36  4679.36
                             4697.58

 Zero-point correction=                           0.306660 (Hartree/Particle)
 Thermal correction to Energy=                    0.329676
 Thermal correction to Enthalpy=                  0.330620
 Thermal correction to Gibbs Free Energy=         0.249459
 Sum of electronic and zero-point Energies=          -1145.149605
 Sum of electronic and thermal Energies=             -1145.126590
 Sum of electronic and thermal Enthalpies=           -1145.125646
 Sum of electronic and thermal Free Energies=        -1145.206807

                     E (Thermal)             CV                S
                      KCal/Mol        Cal/Mol-Kelvin    Cal/Mol-Kelvin
 Total                  206.875             80.559            170.818
 Electronic               0.000              0.000              0.000
 Translational            0.889              2.981             43.130
 Rotational               0.889              2.981             35.121
 Vibrational            205.097             74.597             92.567
 Vibration     1          0.593              1.986              7.093
 Vibration     2          0.593              1.985              6.343
 Vibration     3          0.593              1.985              6.303
 Vibration     4          0.595              1.980              5.143
 Vibration     5          0.595              1.979              5.005
 Vibration     6          0.596              1.975              4.607
 Vibration     7          0.597              1.973              4.442
 Vibration     8          0.598              1.968              4.135
 Vibration     9          0.599              1.964              3.940
 Vibration    10          0.602              1.957              3.675
 Vibration    11          0.603              1.951              3.502
 Vibration    12          0.605              1.946              3.382
 Vibration    13          0.610              1.930              3.050
 Vibration    14          0.619              1.898              2.625
 Vibration    15          0.632              1.858              2.261
 Vibration    16          0.642              1.825              2.041
 Vibration    17          0.646              1.815              1.982
 Vibration    18          0.648              1.808              1.944
 Vibration    19          0.657              1.780              1.805
 Vibration    20          0.660              1.771              1.765
 Vibration    21          0.671              1.737              1.628
 Vibration    22          0.688              1.687              1.456
 Vibration    23          0.697              1.661              1.381
 Vibration    24          0.707              1.633              1.304
 Vibration    25          0.724              1.585              1.188
 Vibration    26          0.742              1.534              1.081
 Vibration    27          0.804              1.374              0.814
 Vibration    28          0.826              1.320              0.742
 Vibration    29          0.838              1.292              0.707
 Vibration    30          0.874              1.207              0.612
 Vibration    31          0.921              1.107              0.514
 Vibration    32          0.940              1.067              0.479

 Normal termination of Gaussian 09 at Tue Feb 19 13:33:03 2019.
