 Gaussian 09, Revision E.01,

 ----------------------------------------------------------------------
 # M062X/Gen 6D SCF=Tight INT(grid=ultrafine) OPT IOP(2/17=4) SCRF=(SMD
 ,Solvent=n-Pentadecane) maxdisk=2147483648
 ----------------------------------------------------------------------

 -----------------------------------
 CLCF3.M062X_6-31pGd_opt_Pentadecane
 -----------------------------------
 Symbolic Z-matrix:
 Charge =  0 Multiplicity = 1

 SCF Done:  E(RM062X) =  -1370.51515262     A.U. after   15 cycles
 SCF Done:  E(RM062X) =  -1370.54501436     A.U. after   14 cycles
 SCF Done:  E(RM062X) =  -1370.55138535     A.U. after   14 cycles
 SCF Done:  E(RM062X) =  -1370.55247073     A.U. after   14 cycles
 SCF Done:  E(RM062X) =  -1370.55285815     A.U. after   13 cycles
 SCF Done:  E(RM062X) =  -1370.55302177     A.U. after   13 cycles
 SCF Done:  E(RM062X) =  -1370.55306137     A.U. after   13 cycles
 SCF Done:  E(RM062X) =  -1370.55312064     A.U. after   12 cycles
 SCF Done:  E(RM062X) =  -1370.55314875     A.U. after   12 cycles
 SCF Done:  E(RM062X) =  -1370.55316339     A.U. after   12 cycles
 SCF Done:  E(RM062X) =  -1370.55341280     A.U. after   11 cycles
 SCF Done:  E(RM062X) =  -1370.55341601     A.U. after   11 cycles
 SCF Done:  E(RM062X) =  -1370.55341843     A.U. after   11 cycles
 SCF Done:  E(RM062X) =  -1370.55342393     A.U. after   11 cycles
 SCF Done:  E(RM062X) =  -1370.55342577     A.U. after   10 cycles
 SCF Done:  E(RM062X) =  -1370.55342631     A.U. after   10 cycles
 SCF Done:  E(RM062X) =  -1370.55342660     A.U. after    9 cycles
 SCF Done:  E(RM062X) =  -1370.55342670     A.U. after    9 cycles
 SCF Done:  E(RM062X) =  -1370.55342676     A.U. after    9 cycles
 Optimization completed.
    -- Stationary point found.
 Normal termination of Gaussian 09 at Sun Feb 24 14:20:07 2019.
 Gaussian 09:  ES64L-G09RevE.01 30-Nov-2015

 ----------------------------------------------------------------------
 # M062X/Gen 6D SCF=Tight INT(grid=ultrafine) SCRF=(SMD,Solvent=n-Penta
 decane) Freq=Noraman maxdisk=2147483648 geom=check guess=read IOP(2/17
 =4)
 ----------------------------------------------------------------------

 -----------------------------------
 CLCF3.M062X_6-31pGd_opt_Pentadecane
 -----------------------------------
 Structure from the checkpoint file:  "CLCF3.M062X_6-31pGd_opt_Pentadecane.chk"
 Charge =  0 Multiplicity = 1

                         Standard orientation:
 ---------------------------------------------------------------------
 Center     Atomic      Atomic             Coordinates (Angstroms)
 Number     Number       Type             X           Y           Z
 ---------------------------------------------------------------------
      1          6           0       -3.004613    0.467174   -0.010692
      2          6           0       -2.401407    1.721123   -0.009107
      3          6           0       -1.025268    1.872801    0.007641
      4          6           0       -0.194427    0.740101    0.025209
      5          6           0       -0.774568   -0.533518    0.022300
      6          6           0       -2.163809   -0.638722    0.005280
      7          1           0       -4.083285    0.365259   -0.024136
      8          7           0        1.182411    0.969108    0.059376
      9          6           0        2.199998    0.023881   -0.003156
     10          7           0        3.451934    0.565938    0.074106
     11          8           0        1.999579   -1.173823   -0.140200
     12          6           0        4.621405   -0.300899    0.137123
     13          6           0        5.891975    0.501834   -0.111355
     14          6           0        7.133460   -0.383075   -0.047469
     15          1           0       -0.593429    2.869759    0.007970
     16          1           0       -0.152277   -1.418546    0.028869
     17          1           0        1.459859    1.943350    0.045282
     18          1           0        3.555622    1.499790    0.452859
     19          1           0        4.501946   -1.074445   -0.626314
     20          1           0        4.674039   -0.809195    1.110237
     21          1           0        5.972652    1.302030    0.637211
     22          1           0        5.821379    0.985771   -1.092911
     23          1           0        7.230811   -0.857356    0.935298
     24          1           0        8.041805    0.198731   -0.229764
     25          1           0        7.087755   -1.177867   -0.799954
     26         17           0       -3.406416    3.146674   -0.028839
     27          6           0       -2.747817   -2.025930    0.004064
     28          9           0       -2.352426   -2.733150   -1.070610
     29          9           0       -4.090838   -2.019919   -0.002210
     30          9           0       -2.362784   -2.729608    1.085466
 ---------------------------------------------------------------------

 SCF Done:  E(RM062X) =  -1370.55342676     A.U. after    1 cycles

 The electronic state is 1-A.
 Alpha  occ. eigenvalues -- -102.68270 -25.30465 -25.29958 -25.29937 -19.62227
 Alpha  occ. eigenvalues --  -14.81615 -14.79453 -10.81345 -10.69656 -10.63446
 Alpha  occ. eigenvalues --  -10.62987 -10.59425 -10.58461 -10.58270 -10.57915
 Alpha  occ. eigenvalues --  -10.57165 -10.55425 -10.54077  -9.82935  -7.55338
 Alpha  occ. eigenvalues --   -7.54675  -7.54660  -1.46811  -1.37653  -1.37175
 Alpha  occ. eigenvalues --   -1.18923  -1.07459  -1.04085  -1.00958  -0.95763
 Alpha  occ. eigenvalues --   -0.90019  -0.88215  -0.84925  -0.81534  -0.78908
 Alpha  occ. eigenvalues --   -0.73907  -0.73253  -0.69552  -0.69245  -0.69034
 Alpha  occ. eigenvalues --   -0.66850  -0.66767  -0.63537  -0.59842  -0.59409
 Alpha  occ. eigenvalues --   -0.57287  -0.57228  -0.56384  -0.55172  -0.54095
 Alpha  occ. eigenvalues --   -0.53305  -0.52946  -0.52815  -0.51349  -0.51061
 Alpha  occ. eigenvalues --   -0.50748  -0.49215  -0.49101  -0.47633  -0.46238
 Alpha  occ. eigenvalues --   -0.45959  -0.43956  -0.43117  -0.42646  -0.41041
 Alpha  occ. eigenvalues --   -0.40334  -0.39028  -0.38608  -0.35698  -0.33033
 Alpha  occ. eigenvalues --   -0.32072  -0.28704
 Alpha virt. eigenvalues --   -0.01249  -0.00214   0.00382   0.01936   0.02949
 Alpha virt. eigenvalues --    0.03381   0.03661   0.03934   0.04033   0.05368
 Alpha virt. eigenvalues --    0.05535   0.05762   0.05990   0.06874   0.07216

 Mulliken charges:
               1
     1  C   -0.855339
     2  C    0.197551
     3  C   -0.797430
     4  C   -0.363917
     5  C    0.340258
     6  C   -0.219196
     7  H    0.270578
     8  N   -0.654420
     9  C    0.718605
    10  N   -0.621656
    11  O   -0.596796
    12  C   -0.186794
    13  C   -0.330742
    14  C   -0.736948
    15  H    0.237422
    16  H    0.301895
    17  H    0.441770
    18  H    0.414142
    19  H    0.246141
    20  H    0.222754
    21  H    0.211034
    22  H    0.229663
    23  H    0.218201
    24  H    0.218409
    25  H    0.219944
    26  Cl   0.208597
    27  C    1.547887
    28  F   -0.268885
    29  F   -0.341956
    30  F   -0.270773
 Sum of Mulliken charges =  -0.00000

 Dipole moment (field-independent basis, Debye):
    X=              5.5408    Y=              5.3992    Z=              0.8453  Tot=              7.7824
 Quadrupole moment (field-independent basis, Debye-Ang):
   XX=            -97.9367   YY=           -115.6416   ZZ=           -115.0661
   XY=              7.4059   XZ=              2.7443   YZ=              0.8953

  Exact polarizability: 241.873 -12.830 190.586   1.752   0.112 111.172
 Approx polarizability: 221.801  -7.672 210.876   1.744   1.078 129.682

                      1                      2                      3
                      A                      A                      A
 Frequencies --     20.8260                27.5380                29.7074
 Red. masses --     11.2495                 5.7063                 2.8939
 Frc consts  --      0.0029                 0.0025                 0.0015
 IR Inten    --      0.1061                 0.1128                 7.6278

                      4                      5                      6
                      A                      A                      A
 Frequencies --     54.2372                57.8357                75.5281
 Red. masses --      5.1783                 2.9603                 3.2568
 Frc consts  --      0.0090                 0.0058                 0.0109
 IR Inten    --      0.4377                 8.2396                 1.4467

                      7                      8                      9
                      A                      A                      A
 Frequencies --    115.5600               119.1023               155.0900
 Red. masses --      6.6297                 8.1410                 8.1893
 Frc consts  --      0.0522                 0.0680                 0.1161
 IR Inten    --      2.2151                 0.1964                 8.1363

                     10                     11                     12
                      A                      A                      A
 Frequencies --    187.8165               194.3803               227.3188
 Red. masses --      3.1506                 5.0967                 6.5244
 Frc consts  --      0.0655                 0.1135                 0.1986
 IR Inten    --      0.7451                 0.2999                 3.5209

                     13                     14                     15
                      A                      A                      A
 Frequencies --    232.4315               243.8560               249.2053
 Red. masses --      1.1851                 3.7953                 5.0724
 Frc consts  --      0.0377                 0.1330                 0.1856
 IR Inten    --      0.1160                 1.3922                 8.7408

                     16                     17                     18
                      A                      A                      A
 Frequencies --    317.2013               331.3262               333.3148
 Red. masses --     10.9745                 1.9769                 5.7558
 Frc consts  --      0.6506                 0.1279                 0.3768
 IR Inten    --      2.3213                79.6508                12.1224

                     19                     20                     21
                      A                      A                      A
 Frequencies --    352.4138               359.2005               444.6650
 Red. masses --      3.6284                 3.6330                 8.0150
 Frc consts  --      0.2655                 0.2762                 0.9337
 IR Inten    --     19.2289                 5.6741                 3.2627

                     22                     23                     24
                      A                      A                      A
 Frequencies --    455.9349               481.4375               512.0880
 Red. masses --      4.6486                 5.0601                 9.0150
 Frc consts  --      0.5693                 0.6910                 1.3929
 IR Inten    --     12.5341                 3.4065                 0.3772

                     25                     26                     27
                      A                      A                      A
 Frequencies --    531.8681               577.0529               598.1316
 Red. masses --      1.2139                 5.6284                 9.9450
 Frc consts  --      0.2023                 1.1042                 2.0963
 IR Inten    --    151.7726                 4.5189                 0.3723

                     28                     29                     30
                      A                      A                      A
 Frequencies --    645.3294               653.0390               709.6546
 Red. masses --      4.5758                 5.7267                 2.8870
 Frc consts  --      1.1227                 1.4389                 0.8566
 IR Inten    --      5.8538                25.4783                17.5653

                     31                     32                     33
                      A                      A                      A
 Frequencies --    711.1446               754.8296               766.5611
 Red. masses --     10.4170                 1.7138                 2.1964
 Frc consts  --      3.1039                 0.5753                 0.7604
 IR Inten    --     41.6953                12.2635                 3.2799

                     34                     35                     36
                      A                      A                      A
 Frequencies --    796.7265               855.6518               887.0090
 Red. masses --      6.1438                10.6320                 1.5523
 Frc consts  --      2.2978                 4.5863                 0.7196
 IR Inten    --      5.7652                52.6039                63.4018

                     37                     38                     39
                      A                      A                      A
 Frequencies --    900.8815               901.3038               927.8638
 Red. masses --      1.1868                 1.4126                 1.8268
 Frc consts  --      0.5675                 0.6761                 0.9266
 IR Inten    --      2.7588                 0.1113                 0.0860

                     40                     41                     42
                      A                      A                      A
 Frequencies --    938.0959               971.6685              1013.0690
 Red. masses --      1.3932                 4.9358                 5.9157
 Frc consts  --      0.7224                 2.7457                 3.5771
 IR Inten    --     15.0918                53.0800                 9.6922

                     43                     44                     45
                      A                      A                      A
 Frequencies --   1051.1160              1084.9497              1141.3477
 Red. masses --      4.2390                 2.5658                 2.0387
 Frc consts  --      2.7594                 1.7794                 1.5647
 IR Inten    --     16.7989                18.2874                40.1857

                     46                     47                     48
                      A                      A                      A
 Frequencies --   1152.5631              1162.9955              1167.2828
 Red. masses --      2.5154                 1.6909                 2.3802
 Frc consts  --      1.9687                 1.3475                 1.9108
 IR Inten    --     16.1516                12.9673                 9.0467

                     49                     50                     51
                      A                      A                      A
 Frequencies --   1182.4519              1198.8849              1229.7447
 Red. masses --      1.8815                12.8896                 6.8481
 Frc consts  --      1.5500                10.9156                 6.1017
 IR Inten    --      2.6395               319.9512               294.4639

                     52                     53                     54
                      A                      A                      A
 Frequencies --   1251.0735              1277.1015              1284.2336
 Red. masses --      1.6677                 1.7058                 1.6080
 Frc consts  --      1.5379                 1.6392                 1.5625
 IR Inten    --    351.4538                18.6398               157.9628

                     55                     56                     57
                      A                      A                      A
 Frequencies --   1307.9815              1325.9268              1345.3776
 Red. masses --      1.7252                 1.1435                 1.7460
 Frc consts  --      1.7390                 1.1845                 1.8620
 IR Inten    --     82.1844                35.5964               101.1299

                     58                     59                     60
                      A                      A                      A
 Frequencies --   1353.9349              1395.9800              1425.8399
 Red. masses --      1.9936                 4.8419                 1.4962
 Frc consts  --      2.1532                 5.5593                 1.7922
 IR Inten    --    129.1552               251.9214                 1.6412

                     61                     62                     63
                      A                      A                      A
 Frequencies --   1436.3878              1488.0062              1508.4597
 Red. masses --      1.3468                 3.5605                 1.0610
 Frc consts  --      1.6371                 4.6448                 1.4224
 IR Inten    --      2.0387               114.9728                13.4218

                     64                     65                     66
                      A                      A                      A
 Frequencies --   1518.5276              1519.5393              1522.3154
 Red. masses --      1.0999                 2.6081                 1.1443
 Frc consts  --      1.4944                 3.5481                 1.5625
 IR Inten    --     62.3083               381.6785                21.1793

                     67                     68                     69
                      A                      A                      A
 Frequencies --   1535.1436              1556.9580              1613.6651
 Red. masses --      1.0966                 1.9327                 2.0277
 Frc consts  --      1.5226                 2.7604                 3.1109
 IR Inten    --      7.0282               501.7712               588.3685

                     70                     71                     72
                      A                      A                      A
 Frequencies --   1679.2045              1693.6389              1806.4639
 Red. masses --      6.2485                 5.7166                 7.7459
 Frc consts  --     10.3808                 9.6611                14.8929
 IR Inten    --    224.7342                16.6432               376.6671

                     73                     74                     75
                      A                      A                      A
 Frequencies --   3059.6245              3064.3994              3079.5269
 Red. masses --      1.0689                 1.0650                 1.0366
 Frc consts  --      5.8958                 5.8925                 5.7918
 IR Inten    --     27.8478                44.9121                34.5050

                     76                     77                     78
                      A                      A                      A
 Frequencies --   3107.8208              3145.5533              3151.9092
 Red. masses --      1.0981                 1.0984                 1.1008
 Frc consts  --      6.2491                 6.4030                 6.4434
 IR Inten    --     18.4241                 2.6822                60.0300

                     79                     80                     81
                      A                      A                      A
 Frequencies --   3158.4522              3227.0835              3271.7149
 Red. masses --      1.1020                 1.0926                 1.0931
 Frc consts  --      6.4771                 6.7042                 6.8939
 IR Inten    --     33.1289                 1.7971                 5.0356

                     82                     83                     84
                      A                      A                      A
 Frequencies --   3291.7313              3620.7570              3631.7810
 Red. masses --      1.0926                 1.0782                 1.0776
 Frc consts  --      6.9751                 8.3279                 8.3743
 IR Inten    --     25.5249                15.3619                86.6162

 - Thermochemistry -
 -------------------
 Temperature   298.150 Kelvin.  Pressure   1.00000 Atm.
 Atom     1 has atomic number  6 and mass  12.00000

 Molecular mass:   280.05903 amu.
 Principal axes and moments of inertia in atomic units:
                           1         2         3
     Eigenvalues --  3464.60259********************
           X            0.99999  -0.00531   0.00027
           Y            0.00531   0.99999   0.00056
           Z           -0.00027  -0.00056   1.00000
 This molecule is an asymmetric top.
 Rotational symmetry number  1.
 Warning -- assumption of classical behavior for rotation
           may cause significant error
 Rotational temperatures (Kelvin)      0.02500     0.00752     0.00592
 Rotational constants (GHZ):           0.52091     0.15676     0.12345
 Zero-point vibrational energy     596609.7 (Joules/Mol)
                                  142.59313 (Kcal/Mol)
 Warning -- explicit consideration of  27 degrees of freedom as
           vibrations may cause significant error
 Vibrational temperatures:     29.96    39.62    42.74    78.04    83.21
          (Kelvin)            108.67   166.26   171.36   223.14   270.23
                              279.67   327.06   334.42   350.85   358.55
                              456.38   476.70   479.57   507.04   516.81
                              639.77   655.99   692.68   736.78   765.24
                              830.25   860.58   928.48   939.58  1021.03
                             1023.18  1086.03  1102.91  1146.31  1231.09
                             1276.21  1296.17  1296.77  1334.99  1349.71
                             1398.01  1457.58  1512.32  1561.00  1642.14
                             1658.28  1673.29  1679.46  1701.28  1724.93
                             1769.33  1800.01  1837.46  1847.72  1881.89
                             1907.71  1935.70  1948.01  2008.50  2051.46
                             2066.64  2140.91  2170.33  2184.82  2186.28
                             2190.27  2208.73  2240.11  2321.70  2416.00
                             2436.77  2599.10  4402.11  4408.98  4430.75
                             4471.46  4525.74  4534.89  4544.30  4643.05
                             4707.26  4736.06  5209.46  5225.32

 Zero-point correction=                           0.227237 (Hartree/Particle)
 Thermal correction to Energy=                    0.245216
 Thermal correction to Enthalpy=                  0.246160
 Thermal correction to Gibbs Free Energy=         0.177687
 Sum of electronic and zero-point Energies=          -1370.326190
 Sum of electronic and thermal Energies=             -1370.308211
 Sum of electronic and thermal Enthalpies=           -1370.307267
 Sum of electronic and thermal Free Energies=        -1370.375740

                     E (Thermal)             CV                S
                      KCal/Mol        Cal/Mol-Kelvin    Cal/Mol-Kelvin
 Total                  153.875             64.411            144.113
 Electronic               0.000              0.000              0.000
 Translational            0.889              2.981             42.788
 Rotational               0.889              2.981             34.721
 Vibrational            152.098             58.449             66.604
 Vibration     1          0.593              1.986              6.554
 Vibration     2          0.593              1.984              5.999
 Vibration     3          0.594              1.984              5.849
 Vibration     4          0.596              1.976              4.657
 Vibration     5          0.596              1.974              4.530
 Vibration     6          0.599              1.965              4.004
 Vibration     7          0.608              1.936              3.173
 Vibration     8          0.609              1.933              3.115
 Vibration     9          0.620              1.897              2.609
 Vibration    10          0.632              1.857              2.249
 Vibration    11          0.635              1.848              2.186
 Vibration    12          0.651              1.799              1.900
 Vibration    13          0.653              1.791              1.860
 Vibration    14          0.659              1.773              1.775
 Vibration    15          0.662              1.764              1.736
 Vibration    16          0.704              1.641              1.324
 Vibration    17          0.714              1.613              1.254
 Vibration    18          0.715              1.609              1.244
 Vibration    19          0.729              1.570              1.155
 Vibration    20          0.734              1.556              1.126
 Vibration    21          0.804              1.373              0.812
 Vibration    22          0.814              1.348              0.778
 Vibration    23          0.838              1.291              0.706
 Vibration    24          0.867              1.223              0.629
 Vibration    25          0.887              1.180              0.583
 Vibration    26          0.934              1.081              0.491
 Vibration    27          0.956              1.036              0.453

 Normal termination of Gaussian 09 at Sun Feb 24 15:04:37 2019.
