 Gaussian 09, Revision E.01,

 ----------------------------------------------------------------------
 # M062X/Gen 6D SCF=Tight INT(grid=ultrafine) OPT IOP(2/17=4) SCRF=(SMD
 ,Solvent=h2o) maxdisk=2684354560
 ----------------------------------------------------------------------

 ----------------------------------
 NM3_C2_EtO.M062X_6-31pGd_opt_water
 ----------------------------------
 Symbolic Z-matrix:
 Charge = -1 Multiplicity = 1

 SCF Done:  E(RM062X) =  -1638.36375447     A.U. after   15 cycles
 SCF Done:  E(RM062X) =  -1638.39986811     A.U. after   15 cycles
 SCF Done:  E(RM062X) =  -1638.40408086     A.U. after   13 cycles
 SCF Done:  E(RM062X) =  -1638.41364301     A.U. after   15 cycles
 SCF Done:  E(RM062X) =  -1638.41386871     A.U. after   15 cycles
 SCF Done:  E(RM062X) =  -1638.41453997     A.U. after   15 cycles
 SCF Done:  E(RM062X) =  -1638.41475357     A.U. after   12 cycles
 SCF Done:  E(RM062X) =  -1638.41479418     A.U. after   11 cycles
 SCF Done:  E(RM062X) =  -1638.41479741     A.U. after   10 cycles
 SCF Done:  E(RM062X) =  -1638.41480404     A.U. after    9 cycles
 SCF Done:  E(RM062X) =  -1638.41483211     A.U. after   11 cycles
 SCF Done:  E(RM062X) =  -1638.41484677     A.U. after   11 cycles
 SCF Done:  E(RM062X) =  -1638.41484702     A.U. after    8 cycles
 SCF Done:  E(RM062X) =  -1638.41484710     A.U. after    9 cycles
 SCF Done:  E(RM062X) =  -1638.41484709     A.U. after    9 cycles
 SCF Done:  E(RM062X) =  -1638.41484714     A.U. after    8 cycles
 Optimization completed.
    -- Stationary point found.
 Normal termination of Gaussian 09 at Tue Feb 19 13:12:03 2019.
 Gaussian 09:  ES64L-G09RevE.01 30-Nov-2015

 ----------------------------------------------------------------------
 # M062X/Gen 6D SCF=Tight INT(grid=ultrafine) OPT IOP(2/17=4) SCRF=(SMD
 ,Solvent=h2o) Freq=Noraman maxdisk=2684354560 geom=check guess=read IO
 P(2/17=4)
 ----------------------------------------------------------------------

 ----------------------------------
 NM3_C2_EtO.M062X_6-31pGd_opt_water
 ----------------------------------
 Structure from the checkpoint file:  "NM3_C2_EtO.M062X_6-31pGd_opt_water.chk"
 Charge = -1 Multiplicity = 1

 SCF Done:  E(RM062X) =  -1638.41484714     A.U. after    1 cycles
 SCF Done:  E(RM062X) =  -1638.41484712     A.U. after    8 cycles
 SCF Done:  E(RM062X) =  -1638.41484716     A.U. after    8 cycles
 Optimization completed.
    -- Stationary point found.
 Normal termination of Gaussian 09 at Tue Feb 19 13:19:41 2019.

 ----------------------------------------------------------------------
 #N Geom=AllCheck Guess=TCheck SCRF=Check Test GenChk RM062X/ChkBas Fre
 q
 ----------------------------------------------------------------------

 Structure from the checkpoint file:  "NM3_C2_EtO.M062X_6-31pGd_opt_water.chk"
 ----------------------------------
 NM3_C2_EtO.M062X_6-31pGd_opt_water
 ----------------------------------
 Charge = -1 Multiplicity = 1

                         Standard orientation:
 ---------------------------------------------------------------------
 Center     Atomic      Atomic             Coordinates (Angstroms)
 Number     Number       Type             X           Y           Z
 ---------------------------------------------------------------------
      1          6           0       -3.788347   -0.567502    0.040967
      2          6           0       -3.100614   -1.770579    0.135327
      3          6           0       -1.714241   -1.859650    0.130412
      4          6           0       -0.956947   -0.681410    0.019977
      5          6           0       -1.628348    0.548468   -0.072647
      6          6           0       -3.015587    0.586577   -0.059817
      7          1           0       -4.871466   -0.534454    0.048034
      8          7           0        0.432861   -0.635959    0.015950
      9          6           0        1.311290   -1.698233   -0.067506
     10          7           0        2.609509   -1.342277   -0.055269
     11          8           0        0.942379   -2.884817   -0.150910
     12          6           0        3.659744   -2.346246   -0.144275
     13          6           0        5.029253   -1.683175   -0.106520
     14          6           0        6.144757   -2.719041   -0.202259
     15          1           0       -1.230425   -2.821865    0.214215
     16          1           0       -1.054178    1.467818   -0.154018
     17          1           0        0.845078    0.311925    0.003630
     18          1           0        2.878910   -0.353418    0.032139
     19          1           0        3.546878   -2.918056   -1.073782
     20          1           0        3.565380   -3.056215    0.686928
     21          1           0        5.128163   -1.109164    0.823132
     22          1           0        5.108305   -0.968190   -0.934836
     23          1           0        6.092166   -3.429621    0.630131
     24          1           0        7.128638   -2.241242   -0.175310
     25          1           0        6.071677   -3.287987   -1.135824
     26         17           0       -4.023025   -3.250858    0.272990
     27          6           0       -3.676647    1.931741   -0.154276
     28          9           0       -3.355811    2.725685    0.888749
     29          9           0       -5.016506    1.853295   -0.183376
     30          9           0       -3.300769    2.603248   -1.262218
     31          8           0        1.424228    2.042824   -0.034528
     32          8           0        3.546834    1.381488    0.198784
     33          6           0        2.663790    2.278454    0.108180
     34          6           0        3.079554    3.745057    0.173374
     35          6           0        4.579388    3.987989    0.263759
     36          1           0        2.563170    4.182672    1.036665
     37          1           0        2.657331    4.238038   -0.710206
     38          1           0        5.002079    3.529173    1.162797
     39          1           0        4.790556    5.061384    0.300890
     40          1           0        5.100557    3.570731   -0.603526
 ---------------------------------------------------------------------

 SCF Done:  E(RM062X) =  -1638.41484716     A.U. after    1 cycles

 The electronic state is 1-A.
 Alpha  occ. eigenvalues -- -102.67843 -25.30963 -25.30565 -25.30537 -19.61777
 Alpha  occ. eigenvalues --  -19.60592 -19.60307 -14.78993 -14.77183 -10.81787
 Alpha  occ. eigenvalues --  -10.68551 -10.65032 -10.62804 -10.62036 -10.59181
 Alpha  occ. eigenvalues --  -10.57356 -10.57192 -10.57025 -10.56821 -10.53839
 Alpha  occ. eigenvalues --  -10.53614 -10.52773 -10.52589  -9.82509  -7.54906
 Alpha  occ. eigenvalues --   -7.54258  -7.54237  -1.47307  -1.38157  -1.37689
 Alpha  occ. eigenvalues --   -1.17529  -1.16482  -1.06727  -1.05701  -1.02508
 Alpha  occ. eigenvalues --   -1.00135  -0.95334  -0.89113  -0.87186  -0.85715
 Alpha  occ. eigenvalues --   -0.84377  -0.81453  -0.77717  -0.73878  -0.72220
 Alpha  occ. eigenvalues --   -0.71637  -0.69579  -0.69223  -0.67971  -0.67900
 Alpha  occ. eigenvalues --   -0.64246  -0.62308  -0.59426  -0.59117  -0.58346
 Alpha  occ. eigenvalues --   -0.57807  -0.57376  -0.55345  -0.54979  -0.53728
 Alpha  occ. eigenvalues --   -0.53649  -0.52872  -0.52789  -0.52667  -0.51822
 Alpha  occ. eigenvalues --   -0.51664  -0.50878  -0.50659  -0.49959  -0.48842
 Alpha  occ. eigenvalues --   -0.48178  -0.46299  -0.46167  -0.45405  -0.45348
 Alpha  occ. eigenvalues --   -0.44183  -0.43328  -0.42089  -0.41675  -0.41352
 Alpha  occ. eigenvalues --   -0.39579  -0.39490  -0.38980  -0.38625  -0.37779
 Alpha  occ. eigenvalues --   -0.35515  -0.33833  -0.32727  -0.32434  -0.32380
 Alpha  occ. eigenvalues --   -0.31351  -0.27341
 Alpha virt. eigenvalues --   -0.00693   0.00713   0.01410   0.02540   0.03051
 Alpha virt. eigenvalues --    0.03666   0.03747   0.03930   0.04569   0.04950
 Alpha virt. eigenvalues --    0.05433   0.05608   0.05785   0.06076   0.06617

 Mulliken charges:
               1
     1  C   -0.746027
     2  C    0.235954
     3  C   -0.207620
     4  C   -0.011149
     5  C   -0.588965
     6  C   -0.223746
     7  H    0.287496
     8  N   -0.655580
     9  C    0.905489
    10  N   -0.796659
    11  O   -0.747374
    12  C   -0.208244
    13  C   -0.356491
    14  C   -0.818346
    15  H    0.291669
    16  H    0.290612
    17  H    0.528291
    18  H    0.528062
    19  H    0.239101
    20  H    0.239582
    21  H    0.236546
    22  H    0.236598
    23  H    0.221383
    24  H    0.222880
    25  H    0.221296
    26  Cl   0.181528
    27  C    1.297134
    28  F   -0.285628
    29  F   -0.342104
    30  F   -0.288788
    31  O   -0.806321
    32  O   -0.765680
    33  C    0.789190
    34  C   -0.488686
    35  C   -0.768707
    36  H    0.246142
    37  H    0.243527
    38  H    0.222303
    39  H    0.219226
    40  H    0.222106
 Sum of Mulliken charges =  -1.00000

 Dipole moment (field-independent basis, Debye):
    X=             -2.9119    Y=              0.0586    Z=              0.1373  Tot=              2.9158
 Quadrupole moment (field-independent basis, Debye-Ang):
   XX=           -172.7814   YY=           -174.1603   ZZ=           -147.4086
   XY=             -4.8197   XZ=             -1.6563   YZ=             -0.5691

  Exact polarizability: 357.189   0.364 313.929  -0.623  -4.565 196.788
 Approx polarizability: 285.200   3.549 263.283  -0.169  -4.258 173.580

                      1                      2                      3
                      A                      A                      A
 Frequencies --     12.4283                22.9295                26.7412
 Red. masses --      7.5699                 5.1745                10.9830
 Frc consts  --      0.0007                 0.0016                 0.0046
 IR Inten    --      0.0199                 2.5652                 0.1194

                      4                      5                      6
                      A                      A                      A
 Frequencies --     28.8954                33.0126                44.4220
 Red. masses --      4.8712                 3.8442                 6.3928
 Frc consts  --      0.0024                 0.0025                 0.0074
 IR Inten    --      0.3024                 2.8419                 3.4289

                      7                      8                      9
                      A                      A                      A
 Frequencies --     53.6883                60.5350                61.3054
 Red. masses --      2.7952                 2.6349                 3.8133
 Frc consts  --      0.0047                 0.0057                 0.0084
 IR Inten    --      2.5889                 3.4570                 4.5848

                     10                     11                     12
                      A                      A                      A
 Frequencies --     67.8396                82.5471               100.2402
 Red. masses --      4.1249                 5.2950                 4.8338
 Frc consts  --      0.0112                 0.0213                 0.0286
 IR Inten    --      0.0075                16.2788                22.9275

                     13                     14                     15
                      A                      A                      A
 Frequencies --    116.7880               119.0520               136.4593
 Red. masses --      7.8903                 8.3324                12.0653
 Frc consts  --      0.0634                 0.0696                 0.1324
 IR Inten    --      4.2975                15.2166                 5.7334

                     16                     17                     18
                      A                      A                      A
 Frequencies --    158.5249               164.8316               194.3379
 Red. masses --      2.7749                 5.2363                 5.4496
 Frc consts  --      0.0411                 0.0838                 0.1213
 IR Inten    --     13.9917                14.6604                 0.4991

                     19                     20                     21
                      A                      A                      A
 Frequencies --    233.4397               237.2653               241.1161
 Red. masses --      7.8099                 3.6851                 1.2203
 Frc consts  --      0.2508                 0.1222                 0.0418
 IR Inten    --      3.9093                 1.1986                 0.0263

                     22                     23                     24
                      A                      A                      A
 Frequencies --    244.3506               256.3220               305.6711
 Red. masses --      1.1007                 5.5649                 3.8216
 Frc consts  --      0.0387                 0.2154                 0.2104
 IR Inten    --      1.7582                 4.0151                12.0882

                     25                     26                     27
                      A                      A                      A
 Frequencies --    320.1695               330.6901               338.0258
 Red. masses --     10.8709                 7.2434                 5.5425
 Frc consts  --      0.6566                 0.4667                 0.3731
 IR Inten    --      3.6660                 0.0315                 9.5075

                     28                     29                     30
                      A                      A                      A
 Frequencies --    369.1501               428.4888               466.5988
 Red. masses --      7.1673                 8.1198                 6.8784
 Frc consts  --      0.5755                 0.8784                 0.8823
 IR Inten    --     29.5067                 6.7615                 9.5422

                     31                     32                     33
                      A                      A                      A
 Frequencies --    472.4713               510.8758               522.0577
 Red. masses --      4.8281                11.0081                 5.6131
 Frc consts  --      0.6350                 1.6928                 0.9013
 IR Inten    --      0.7989                 3.9785                38.6798

                     34                     35                     36
                      A                      A                      A
 Frequencies --    579.7031               581.6139               596.2967
 Red. masses --      1.9458                 5.4226                10.1220
 Frc consts  --      0.3853                 1.0808                 2.1205
 IR Inten    --      1.6791                 1.4282                 1.0771

                     37                     38                     39
                      A                      A                      A
 Frequencies --    643.8001               648.7268               654.7330
 Red. masses --      3.3067                 5.8269                 2.7177
 Frc consts  --      0.8075                 1.4448                 0.6864
 IR Inten    --     21.4666                33.1528                83.7728

                     40                     41                     42
                      A                      A                      A
 Frequencies --    659.1889               704.0332               712.4414
 Red. masses --      1.7032                 2.4197                12.0105
 Frc consts  --      0.4360                 0.7066                 3.5918
 IR Inten    --    112.6719                23.8718                70.1542

                     43                     44                     45
                      A                      A                      A
 Frequencies --    757.3094               764.5343               782.3224
 Red. masses --      1.5559                 1.4918                 6.7616
 Frc consts  --      0.5258                 0.5138                 2.4382
 IR Inten    --     83.5133                54.1859                25.0391

                     46                     47                     48
                      A                      A                      A
 Frequencies --    802.5645               819.9190               856.2881
 Red. masses --      1.4002                 1.4841                11.4038
 Frc consts  --      0.5314                 0.5878                 4.9265
 IR Inten    --    106.6896                53.9634                51.4122

                     49                     50                     51
                      A                      A                      A
 Frequencies --    876.9459               887.5587               902.9767
 Red. masses --      1.5356                 3.9082                 1.5504
 Frc consts  --      0.6958                 1.8139                 0.7448
 IR Inten    --     81.0714                37.8089                44.8033

                     52                     53                     54
                      A                      A                      A
 Frequencies --    905.2575               918.4485               924.3252
 Red. masses --      1.1542                 1.3938                 1.8193
 Frc consts  --      0.5573                 0.6927                 0.9158
 IR Inten    --      4.0239                14.2320                 1.0050

                     55                     56                     57
                      A                      A                      A
 Frequencies --    965.9710              1010.8708              1027.8018
 Red. masses --      4.7324                 5.8823                 1.6466
 Frc consts  --      2.6017                 3.5415                 1.0249
 IR Inten    --     50.1320                22.0176                13.8575

                     58                     59                     60
                      A                      A                      A
 Frequencies --   1054.0424              1086.1364              1109.0045
 Red. masses --      4.2616                 2.5844                 1.7908
 Frc consts  --      2.7896                 1.7963                 1.2977
 IR Inten    --     37.2805                27.3574                 3.0280

                     61                     62                     63
                      A                      A                      A
 Frequencies --   1112.8839              1139.1382              1143.6438
 Red. masses --      2.3328                 1.6275                 2.5868
 Frc consts  --      1.7023                 1.2443                 1.9934
 IR Inten    --     15.6173                23.9505                56.1408

                     64                     65                     66
                      A                      A                      A
 Frequencies --   1158.7310              1162.6162              1181.1298
 Red. masses --     12.4985                 2.3964                 1.6121
 Frc consts  --      9.8872                 1.9085                 1.3250
 IR Inten    --    446.9487                77.0919                 0.2696

                     67                     68                     69
                      A                      A                      A
 Frequencies --   1182.8594              1205.8807              1280.0208
 Red. masses --      3.6249                 5.2244                 1.1933
 Frc consts  --      2.9883                 4.4761                 1.1519
 IR Inten    --     27.5740               416.8187                 0.3952

                     70                     71                     72
                      A                      A                      A
 Frequencies --   1288.6503              1290.5374              1293.6507
 Red. masses --      1.6273                 1.1701                 2.5694
 Frc consts  --      1.5922                 1.1482                 2.5335
 IR Inten    --    181.5231                 0.2889               116.7600

                     73                     74                     75
                      A                      A                      A
 Frequencies --   1316.7765              1325.8470              1336.0148
 Red. masses --      1.6212                 1.0735                 1.7610
 Frc consts  --      1.6562                 1.1118                 1.8520
 IR Inten    --    361.6453                 0.5960               130.9648

                     76                     77                     78
                      A                      A                      A
 Frequencies --   1356.5054              1367.3619              1386.0252
 Red. masses --      1.8170                 2.9141                 5.3769
 Frc consts  --      1.9699                 3.2101                 6.0859
 IR Inten    --    375.0483               111.0005               679.2949

                     79                     80                     81
                      A                      A                      A
 Frequencies --   1420.4364              1420.8843              1430.1689
 Red. masses --      1.2930                 1.3059                 1.6814
 Frc consts  --      1.5371                 1.5533                 2.0263
 IR Inten    --      2.5229                33.3874                38.3790

                     82                     83                     84
                      A                      A                      A
 Frequencies --   1457.1206              1471.2359              1479.9042
 Red. masses --      1.3598                 2.6637                 3.7814
 Frc consts  --      1.7010                 3.3970                 4.8794
 IR Inten    --    157.8329               279.8891                95.4725

                     85                     86                     87
                      A                      A                      A
 Frequencies --   1489.6464              1501.1970              1502.7728
 Red. masses --      1.0612                 1.0396                 1.0400
 Frc consts  --      1.3874                 1.3803                 1.3838
 IR Inten    --      6.9348                11.2056                11.4608

                     88                     89                     90
                      A                      A                      A
 Frequencies --   1507.5985              1512.1606              1526.5870
 Red. masses --      1.1201                 1.0816                 3.5639
 Frc consts  --      1.5000                 1.4572                 4.8935
 IR Inten    --     76.8630                 2.2143               414.6331

                     91                     92                     93
                      A                      A                      A
 Frequencies --   1531.3850              1558.3704              1611.3073
 Red. masses --      1.1375                 7.1784                 3.2353
 Frc consts  --      1.5717                10.2711                 4.9490
 IR Inten    --     13.7915               822.6332               508.4009

                     94                     95                     96
                      A                      A                      A
 Frequencies --   1618.4052              1673.7679              1691.5479
 Red. masses --      1.9046                 7.0393                 4.8019
 Frc consts  --      2.9392                11.6190                 8.0953
 IR Inten    --   1752.0046               336.3924                30.6382

                     97                     98                     99
                      A                      A                      A
 Frequencies --   1722.8288              3067.8044              3075.5415
 Red. masses --      1.9801                 1.0584                 1.0496
 Frc consts  --      3.4627                 5.8690                 5.8496
 IR Inten    --    497.9675                34.2502                20.4289

                    100                    101                    102
                      A                      A                      A
 Frequencies --   3076.8192              3083.0640              3084.4494
 Red. masses --      1.0461                 1.0521                 1.0461
 Frc consts  --      5.8348                 5.8919                 5.8636
 IR Inten    --    119.6143                55.4167                11.9943

                    103                    104                    105
                      A                      A                      A
 Frequencies --   3098.5732              3119.6070              3120.2264
 Red. masses --      1.1045                 1.1062                 1.1014
 Frc consts  --      6.2479                 6.3429                 6.3177
 IR Inten    --     11.6255                55.8516                 9.3095

                    106                    107                    108
                      A                      A                      A
 Frequencies --   3145.7196              3153.8639              3155.5695
 Red. masses --      1.1038                 1.1025                 1.1022
 Frc consts  --      6.4355                 6.4615                 6.4663
 IR Inten    --     95.2310                51.5378                49.0347

                    109                    110                    111
                      A                      A                      A
 Frequencies --   3159.3254              3223.8764              3239.4702
 Red. masses --      1.1035                 1.0891                 1.0925
 Frc consts  --      6.4897                 6.6692                 6.7551
 IR Inten    --     56.9889              1184.4300                19.7677

                    112                    113                    114
                      A                      A                      A
 Frequencies --   3267.2456              3303.4962              3333.2276
 Red. masses --      1.0942                 1.0928                 1.0865
 Frc consts  --      6.8818                 7.0265                 7.1124
 IR Inten    --      8.5854                22.8246              1440.9487

 - Thermochemistry -
 -------------------
 Temperature   298.150 Kelvin.  Pressure   1.00000 Atm.
 Atom     1 has atomic number  6 and mass  12.00000

 Molecular mass:   353.08798 amu.
 Principal axes and moments of inertia in atomic units:
                           1         2         3
     Eigenvalues --  6994.21291********************
           X            0.99999   0.00492  -0.00059
           Y           -0.00492   0.99998   0.00486
           Z            0.00061  -0.00486   0.99999
 This molecule is an asymmetric top.
 Rotational symmetry number  1.
 Warning -- assumption of classical behavior for rotation
           may cause significant error
 Rotational temperatures (Kelvin)      0.01238     0.00576     0.00401
 Rotational constants (GHZ):           0.25803     0.11998     0.08355
 Zero-point vibrational energy     803636.7 (Joules/Mol)
                                  192.07378 (Kcal/Mol)
 Warning -- explicit consideration of  36 degrees of freedom as
           vibrations may cause significant error
 Vibrational temperatures:     17.88    32.99    38.47    41.57    47.50
          (Kelvin)             63.91    77.25    87.10    88.20    97.61
                              118.77   144.22   168.03   171.29   196.33
                              228.08   237.16   279.61   335.87   341.37
                              346.91   351.57   368.79   439.79   460.65
                              475.79   486.34   531.12   616.50   671.33
                              679.78   735.04   751.12   834.06   836.81
                              857.94   926.28   933.37   942.01   948.42
                             1012.95  1025.04  1089.60  1099.99  1125.59
                             1154.71  1179.68  1232.01  1261.73  1277.00
                             1299.18  1302.46  1321.44  1329.90  1389.82
                             1454.42  1478.78  1516.53  1562.71  1595.61
                             1601.19  1638.96  1645.45  1667.15  1672.74
                             1699.38  1701.87  1734.99  1841.66  1854.08
                             1856.79  1861.27  1894.55  1907.60  1922.22
                             1951.71  1967.33  1994.18  2043.69  2044.33
                             2057.69  2096.47  2116.78  2129.25  2143.27
                             2159.88  2162.15  2169.10  2175.66  2196.42
                             2203.32  2242.14  2318.31  2328.52  2408.18
                             2433.76  2478.76  4413.88  4425.01  4426.85
                             4435.84  4437.83  4458.15  4488.41  4489.30
                             4525.98  4537.70  4540.16  4545.56  4638.43
                             4660.87  4700.83  4752.99  4795.77

 Zero-point correction=                           0.306089 (Hartree/Particle)
 Thermal correction to Energy=                    0.331041
 Thermal correction to Enthalpy=                  0.331985
 Thermal correction to Gibbs Free Energy=         0.244929
 Sum of electronic and zero-point Energies=          -1638.108758
 Sum of electronic and thermal Energies=             -1638.083806
 Sum of electronic and thermal Enthalpies=           -1638.082862
 Sum of electronic and thermal Free Energies=        -1638.169918

                     E (Thermal)             CV                S
                      KCal/Mol        Cal/Mol-Kelvin    Cal/Mol-Kelvin
 Total                  207.731             86.481            183.224
 Electronic               0.000              0.000              0.000
 Translational            0.889              2.981             43.478
 Rotational               0.889              2.981             36.073
 Vibrational            205.954             80.520            103.673
 Vibration     1          0.593              1.987              7.579
 Vibration     2          0.593              1.985              6.363
 Vibration     3          0.593              1.984              6.058
 Vibration     4          0.593              1.984              5.904
 Vibration     5          0.594              1.983              5.640
 Vibration     6          0.595              1.980              5.051
 Vibration     7          0.596              1.976              4.677
 Vibration     8          0.597              1.973              4.440
 Vibration     9          0.597              1.973              4.415
 Vibration    10          0.598              1.970              4.215
 Vibration    11          0.600              1.961              3.829
 Vibration    12          0.604              1.949              3.450
 Vibration    13          0.608              1.935              3.153
 Vibration    14          0.609              1.933              3.116
 Vibration    15          0.614              1.917              2.853
 Vibration    16          0.621              1.893              2.567
 Vibration    17          0.623              1.886              2.494
 Vibration    18          0.635              1.848              2.186
 Vibration    19          0.654              1.790              1.852
 Vibration    20          0.656              1.784              1.823
 Vibration    21          0.658              1.777              1.795
 Vibration    22          0.660              1.772              1.771
 Vibration    23          0.666              1.752              1.687
 Vibration    24          0.696              1.663              1.386
 Vibration    25          0.706              1.635              1.309
 Vibration    26          0.713              1.614              1.257
 Vibration    27          0.718              1.600              1.221
 Vibration    28          0.741              1.536              1.083
 Vibration    29          0.790              1.408              0.864
 Vibration    30          0.824              1.324              0.747
 Vibration    31          0.829              1.311              0.731
 Vibration    32          0.866              1.226              0.631
 Vibration    33          0.877              1.201              0.605
 Vibration    34          0.936              1.075              0.486
 Vibration    35          0.938              1.071              0.482
 Vibration    36          0.954              1.040              0.456

 Normal termination of Gaussian 09 at Tue Feb 19 14:10:20 2019.
