 Gaussian 09, Revision E.01,

 ----------------------------------------------------------------------
 # M062X/Gen 6D SCF=Tight INT(grid=ultrafine) OPT IOP(2/17=4) Freq=Nora
 man SCRF=(SMD,Solvent=h2o) maxdisk=2147483648
 ----------------------------------------------------------------------

 ---------------------------------
 aryl_urea_nitro.M062X.SMD.h2o.opt
 ---------------------------------
 Symbolic Z-matrix:
 Charge =  0 Multiplicity = 1

 SCF Done:  E(RM062X) =  -778.434730368     A.U. after   17 cycles
 SCF Done:  E(RM062X) =  -778.468712917     A.U. after   16 cycles
 SCF Done:  E(RM062X) =  -778.472027797     A.U. after   15 cycles
 SCF Done:  E(RM062X) =  -778.473362590     A.U. after   15 cycles
 SCF Done:  E(RM062X) =  -778.473784945     A.U. after   14 cycles
 SCF Done:  E(RM062X) =  -778.472285412     A.U. after   17 cycles
 SCF Done:  E(RM062X) =  -778.473965303     A.U. after   12 cycles
 SCF Done:  E(RM062X) =  -778.474121060     A.U. after   13 cycles
 SCF Done:  E(RM062X) =  -778.474188733     A.U. after   13 cycles
 SCF Done:  E(RM062X) =  -778.474227434     A.U. after   13 cycles
 SCF Done:  E(RM062X) =  -778.474263123     A.U. after   11 cycles
 SCF Done:  E(RM062X) =  -778.474263310     A.U. after   10 cycles
 SCF Done:  E(RM062X) =  -778.474262658     A.U. after   11 cycles
 SCF Done:  E(RM062X) =  -778.474262341     A.U. after   10 cycles
 SCF Done:  E(RM062X) =  -778.474261924     A.U. after   10 cycles
 SCF Done:  E(RM062X) =  -778.474261681     A.U. after    9 cycles
 SCF Done:  E(RM062X) =  -778.474261501     A.U. after    9 cycles
 Optimization completed.
    -- Stationary point found.
 Normal termination of Gaussian 09 at Mon Jul 16 12:03:39 2018.

 ----------------------------------------------------------------------
 #N Geom=AllCheck Guess=TCheck SCRF=Check Test GenChk RM062X/ChkBas Fre
 q
 ----------------------------------------------------------------------

 Structure from the checkpoint file:  "aryl_urea_nitro.M062X.SMD.h2o.opt.chk"
 ---------------------------------
 aryl_urea_nitro.M062X.SMD.h2o.opt
 ---------------------------------
 Charge =  0 Multiplicity = 1

 SCF Done:  E(RM062X) =  -778.474261501     A.U. after    1 cycles
 Optimization completed.
 Normal termination of Gaussian 09 at Mon Jul 16 12:38:57 2018.
 Gaussian 09:  ES64L-G09RevE.01 30-Nov-2015

 ----------------------------------------------------------------------
 # M062X/Gen 6D SCF=Tight INT(grid=ultrafine) OPT IOP(2/17=4) Freq=Nora
 man SCRF=(SMD,Solvent=h2o) geom=check guess=read IOP(2/17=4) maxdisk=2
 147483648
 ----------------------------------------------------------------------

 ---------------------------------
 aryl_urea_nitro.M062X.SMD.h2o.opt
 ---------------------------------
 Structure from the checkpoint file:  "aryl_urea_nitro.M062X.SMD.h2o.opt.chk"
 Charge =  0 Multiplicity = 1

 SCF Done:  E(RM062X) =  -778.474261501     A.U. after    1 cycles
    -- Stationary point found.
 Normal termination of Gaussian 09 at Mon Jul 16 12:39:46 2018.

 ----------------------------------------------------------------------
 #N Geom=AllCheck Guess=TCheck SCRF=Check Test GenChk RM062X/ChkBas Fre
 q
 ----------------------------------------------------------------------

 Structure from the checkpoint file:  "aryl_urea_nitro.M062X.SMD.h2o.opt.chk"
 ---------------------------------
 aryl_urea_nitro.M062X.SMD.h2o.opt
 ---------------------------------
 Charge =  0 Multiplicity = 1

                         Standard orientation:
 ---------------------------------------------------------------------
 Center     Atomic      Atomic             Coordinates (Angstroms)
 Number     Number       Type             X           Y           Z
 ---------------------------------------------------------------------
      1          6           0        3.317234    0.016995   -0.008579
      2          6           0        2.817988    1.320038    0.022107
      3          6           0        1.450415    1.505797    0.022661
      4          6           0        0.568918    0.404811   -0.006674
      5          6           0        1.096539   -0.899880   -0.040630
      6          6           0        2.470160   -1.087421   -0.041082
      7          7           0       -0.785843    0.700601   -0.012155
      8          6           0       -1.860208   -0.174715    0.040721
      9          7           0       -3.067512    0.422525   -0.001223
     10          8           0       -1.727594   -1.402595    0.130652
     11          6           0       -4.295296   -0.363982    0.000947
     12          6           0       -5.509357    0.551997   -0.021929
     13          6           0       -6.803943   -0.254400   -0.035163
     14          1           0        1.044994    2.513190    0.047014
     15          1           0        0.441122   -1.757215   -0.069811
     16          1           0       -1.011320    1.691059   -0.031813
     17          1           0       -3.136618    1.425004   -0.140525
     18          1           0       -4.314658   -0.994863    0.896499
     19          1           0       -4.306908   -1.028926   -0.871343
     20          1           0       -5.459957    1.195560   -0.908960
     21          1           0       -5.483829    1.207848    0.856699
     22          1           0       -6.854780   -0.898436   -0.919948
     23          1           0       -7.676460    0.405364   -0.047637
     24          1           0       -6.876210   -0.893186    0.851960
     25          1           0        3.489383    2.170472    0.046366
     26          1           0        2.878658   -2.090981   -0.069251
     27          7           0        4.749016   -0.189862   -0.008131
     28          8           0        5.178734   -1.338389   -0.035344
     29          8           0        5.484142    0.791838    0.019322
 ---------------------------------------------------------------------

 SCF Done:  E(RM062X) =  -778.474261501     A.U. after    2 cycles

 The electronic state is 1-A.
 Alpha  occ. eigenvalues --  -19.69571 -19.69567 -19.62794 -15.02784 -14.81266
 Alpha  occ. eigenvalues --  -14.79121 -10.69910 -10.62951 -10.61231 -10.58161
 Alpha  occ. eigenvalues --  -10.58137 -10.57819 -10.56988 -10.56603 -10.54242
 Alpha  occ. eigenvalues --  -10.52986  -1.37944  -1.19068  -1.18887  -1.07241
 Alpha  occ. eigenvalues --   -1.03746  -0.99211  -0.91118  -0.87911  -0.86993
 Alpha  occ. eigenvalues --   -0.81219  -0.76877  -0.73121  -0.70266  -0.68709
 Alpha  occ. eigenvalues --   -0.67303  -0.65627  -0.64071  -0.63584  -0.61971
 Alpha  occ. eigenvalues --   -0.61489  -0.56123  -0.54726  -0.53796  -0.52922
 Alpha  occ. eigenvalues --   -0.52574  -0.51602  -0.50240  -0.48330  -0.47608
 Alpha  occ. eigenvalues --   -0.46726  -0.45187  -0.42813  -0.42040  -0.40999
 Alpha  occ. eigenvalues --   -0.40051  -0.39900  -0.39702  -0.39332  -0.39046
 Alpha  occ. eigenvalues --   -0.36241  -0.33310  -0.32901  -0.28504
 Alpha virt. eigenvalues --   -0.06599   0.00581   0.01508   0.02766   0.03184
 Alpha virt. eigenvalues --    0.03571   0.04128   0.04547   0.04614   0.05165
 Alpha virt. eigenvalues --    0.06012   0.06556   0.06986   0.07653   0.08237

 Mulliken charges:
               1
     1  C   -0.324457
     2  C    0.231616
     3  C   -1.676856
     4  C    0.473211
     5  C    0.873493
     6  C   -0.422803
     7  N   -0.642223
     8  C    0.948896
     9  N   -0.682165
    10  O   -0.746527
    11  C   -0.164551
    12  C   -0.379969
    13  C   -0.744251
    14  H    0.270836
    15  H    0.285243
    16  H    0.502496
    17  H    0.486594
    18  H    0.241203
    19  H    0.238050
    20  H    0.234445
    21  H    0.235431
    22  H    0.222781
    23  H    0.224032
    24  H    0.222362
    25  H    0.287179
    26  H    0.285870
    27  N   -0.208327
    28  O   -0.131078
    29  O   -0.140531
 Sum of Mulliken charges =  -0.00000

 Dipole moment (field-independent basis, Debye):
    X=            -10.9833    Y=              7.4531    Z=             -0.6059  Tot=             13.2871
 Quadrupole moment (field-independent basis, Debye-Ang):
   XX=           -126.0480   YY=            -89.3025   ZZ=            -96.8528
   XY=             -7.4208   XZ=              1.4424   YZ=              0.2579

  Exact polarizability: 344.898  -6.781 229.323   0.129   0.865 128.518
 Approx polarizability: 253.738  -5.475 204.953   0.225   0.835 113.920

                      1                      2                      3
                      A                      A                      A
 Frequencies --     23.3651                25.3174                45.8494
 Red. masses --      2.2534                 5.2023                 3.6538
 Frc consts  --      0.0007                 0.0020                 0.0045
 IR Inten    --      0.4203                 0.1015                38.2336

                      4                      5                      6
                      A                      A                      A
 Frequencies --     59.9083                65.0355                70.3718
 Red. masses --      5.9059                 4.8433                 4.5835
 Frc consts  --      0.0125                 0.0121                 0.0134
 IR Inten    --      1.5800                 0.1291                 8.2304

                      7                      8                      9
                      A                      A                      A
 Frequencies --    128.5142               149.8023               162.0647
 Red. masses --      5.5034                 3.5301                 4.6308
 Frc consts  --      0.0536                 0.0467                 0.0717
 IR Inten    --      2.8010                22.3086                 5.2811

                     10                     11                     12
                      A                      A                      A
 Frequencies --    223.2465               242.1697               251.0749
 Red. masses --      6.0439                 1.1295                 5.3980
 Frc consts  --      0.1775                 0.0390                 0.2005
 IR Inten    --      0.4539                 0.4300                 7.1980

                     13                     14                     15
                      A                      A                      A
 Frequencies --    303.0986               340.4037               351.9617
 Red. masses --      6.2076                 1.7719                 1.8409
 Frc consts  --      0.3360                 0.1210                 0.1344
 IR Inten    --      4.7068                77.3236                55.6095

                     16                     17                     18
                      A                      A                      A
 Frequencies --    361.6480               407.6918               421.4056
 Red. masses --      6.1398                 5.8721                 3.0105
 Frc consts  --      0.4731                 0.5750                 0.3150
 IR Inten    --      0.4023                 5.1718                 0.7291

                     19                     20                     21
                      A                      A                      A
 Frequencies --    501.9231               514.3498               545.1655
 Red. masses --      2.7352                 4.5576                 7.3929
 Frc consts  --      0.4060                 0.7104                 1.2946
 IR Inten    --     41.5098                11.4179                 6.2189

                     22                     23                     24
                      A                      A                      A
 Frequencies --    574.4322               636.5907               689.6487
 Red. masses --      1.1602                 7.1304                 7.1205
 Frc consts  --      0.2256                 1.7025                 1.9953
 IR Inten    --    210.8505                 4.8104                 9.1725

                     25                     26                     27
                      A                      A                      A
 Frequencies --    701.6329               757.7505               768.5313
 Red. masses --      3.5716                 1.6615                 2.2180
 Frc consts  --      1.0359                 0.5621                 0.7718
 IR Inten    --     13.6039                23.1856                 4.8528

                     28                     29                     30
                      A                      A                      A
 Frequencies --    771.1095               783.6587               843.3049
 Red. masses --      6.9207                 7.0589                 1.2675
 Frc consts  --      2.4246                 2.5541                 0.5311
 IR Inten    --     59.4002                19.5269                 1.3016

                     31                     32                     33
                      A                      A                      A
 Frequencies --    856.0470               874.6860               894.8671
 Red. masses --      6.6253                 1.8395                 7.0919
 Frc consts  --      2.8605                 0.8292                 3.3460
 IR Inten    --     39.1063               105.2415                47.1042

                     34                     35                     36
                      A                      A                      A
 Frequencies --    908.9745               934.2211               997.6283
 Red. masses --      1.1527                 1.6802                 1.2985
 Frc consts  --      0.5611                 0.8640                 0.7614
 IR Inten    --      3.2203                 9.5916                 0.0469

                     37                     38                     39
                      A                      A                      A
 Frequencies --   1010.5927              1026.6560              1051.4078
 Red. masses --      1.3407                 2.9766                 4.1193
 Frc consts  --      0.8068                 1.8485                 2.6829
 IR Inten    --      0.0523                24.0772                24.2056

                     40                     41                     42
                      A                      A                      A
 Frequencies --   1084.1046              1142.0715              1145.0616
 Red. masses --      2.5594                 1.9017                 2.1167
 Frc consts  --      1.7722                 1.4615                 1.6352
 IR Inten    --     13.0282               430.2804               574.0243

                     43                     44                     45
                      A                      A                      A
 Frequencies --   1161.0133              1172.9217              1182.2719
 Red. masses --      1.5554                 3.2679                 1.6433
 Frc consts  --      1.2352                 2.6488                 1.3534
 IR Inten    --     22.4714                 2.5835                 1.5481

                     46                     47                     48
                      A                      A                      A
 Frequencies --   1221.4730              1268.2893              1284.7345
 Red. masses --      1.5151                 1.6177                 1.1980
 Frc consts  --      1.3319                 1.5331                 1.1650
 IR Inten    --     79.1102              1011.0480                41.1120

                     49                     50                     51
                      A                      A                      A
 Frequencies --   1314.3009              1331.2274              1339.1636
 Red. masses --      1.9835                 1.0731                 1.6405
 Frc consts  --      2.0187                 1.1204                 1.7334
 IR Inten    --     58.9622                 1.9429               389.3798

                     52                     53                     54
                      A                      A                      A
 Frequencies --   1352.1911              1380.4690              1415.3946
 Red. masses --      1.4544                 7.3459                 3.7194
 Frc consts  --      1.5668                 8.2480                 4.3901
 IR Inten    --    130.7285              1276.9581               828.1588

                     55                     56                     57
                      A                      A                      A
 Frequencies --   1422.6162              1433.7323              1466.6999
 Red. masses --      1.4156                 1.7477                 3.5926
 Frc consts  --      1.6880                 2.1167                 4.5535
 IR Inten    --     94.0453                11.1635                 6.3022

                     58                     59                     60
                      A                      A                      A
 Frequencies --   1491.2638              1504.0090              1511.8818
 Red. masses --      1.0578                 1.0393                 1.0874
 Frc consts  --      1.3861                 1.3852                 1.4644
 IR Inten    --     10.8730                11.8209                12.6153

                     61                     62                     63
                      A                      A                      A
 Frequencies --   1532.0111              1549.5417              1563.4255
 Red. masses --      1.0924                 2.2717                 2.6534
 Frc consts  --      1.5107                 3.2137                 3.8212
 IR Inten    --     55.0173               705.0366               167.2477

                     64                     65                     66
                      A                      A                      A
 Frequencies --   1572.6644              1608.4812              1675.3928
 Red. masses --      5.5020                 2.9701                 6.9950
 Frc consts  --      8.0176                 4.5274                11.5683
 IR Inten    --   1454.5687               334.9475               226.6095

                     67                     68                     69
                      A                      A                      A
 Frequencies --   1686.5239              1716.8246              3075.1639
 Red. masses --      4.9607                 3.7477                 1.0602
 Frc consts  --      8.3134                 6.5083                 5.9072
 IR Inten    --    194.8406               822.3992                12.0537

                     70                     71                     72
                      A                      A                      A
 Frequencies --   3077.6576              3083.6280              3109.7852
 Red. masses --      1.0367                 1.0591                 1.1026
 Frc consts  --      5.7857                 5.9334                 6.2826
 IR Inten    --     28.9598                94.4152                 2.1921

                     73                     74                     75
                      A                      A                      A
 Frequencies --   3130.0198              3148.0965              3157.9412
 Red. masses --      1.1069                 1.1041                 1.1022
 Frc consts  --      6.3891                 6.4472                 6.4763
 IR Inten    --     45.0053                98.3361                46.7299

                     76                     77                     78
                      A                      A                      A
 Frequencies --   3237.4731              3269.9517              3274.6112
 Red. masses --      1.0923                 1.0928                 1.0945
 Frc consts  --      6.7456                 6.8846                 6.9148
 IR Inten    --      3.1123                 3.4103                 5.7116

                     79                     80                     81
                      A                      A                      A
 Frequencies --   3312.9803              3600.3820              3615.1271
 Red. masses --      1.0933                 1.0786                 1.0796
 Frc consts  --      7.0698                 8.2381                 8.3133
 IR Inten    --     11.1402                44.7999               283.4245

 - Thermochemistry -
 -------------------
 Temperature   298.150 Kelvin.  Pressure   1.00000 Atm.
 Atom     1 has atomic number  6 and mass  12.00000

 Molecular mass:   223.09569 amu.
 Principal axes and moments of inertia in atomic units:
                           1         2         3
     Eigenvalues --   699.40852********************
           X            1.00000   0.00049   0.00046
           Y           -0.00049   1.00000   0.00121
           Z           -0.00046  -0.00121   1.00000
 This molecule is an asymmetric top.
 Rotational symmetry number  1.
 Warning -- assumption of classical behavior for rotation
           may cause significant error
 Rotational temperatures (Kelvin)      0.12384     0.00752     0.00711
 Rotational constants (GHZ):           2.58038     0.15671     0.14819
 Zero-point vibrational energy     615470.8 (Joules/Mol)
                                  147.10105 (Kcal/Mol)
 Warning -- explicit consideration of  22 degrees of freedom as
           vibrations may cause significant error
 Vibrational temperatures:     33.62    36.43    65.97    86.19    93.57
          (Kelvin)            101.25   184.90   215.53   233.17   321.20
                              348.43   361.24   436.09   489.76   506.39
                              520.33   586.58   606.31   722.15   740.03
                              784.37   826.48   915.91   992.25  1009.49
                             1090.23  1105.74  1109.45  1127.51  1213.33
                             1231.66  1258.48  1287.51  1307.81  1344.13
                             1435.36  1454.02  1477.13  1512.74  1559.78
                             1643.18  1647.49  1670.44  1687.57  1701.02
                             1757.42  1824.78  1848.44  1890.98  1915.34
                             1926.76  1945.50  1986.18  2036.43  2046.82
                             2062.82  2110.25  2145.59  2163.93  2175.26
                             2204.22  2229.44  2249.42  2262.71  2314.24
                             2410.51  2426.53  2470.12  4424.47  4428.06
                             4436.65  4474.28  4503.39  4529.40  4543.57
                             4658.00  4704.73  4711.43  4766.63  5180.14
                             5201.36

 Zero-point correction=                           0.234420 (Hartree/Particle)
 Thermal correction to Energy=                    0.250111
 Thermal correction to Enthalpy=                  0.251056
 Thermal correction to Gibbs Free Energy=         0.188363
 Sum of electronic and zero-point Energies=           -778.239841
 Sum of electronic and thermal Energies=              -778.224150
 Sum of electronic and thermal Enthalpies=            -778.223206
 Sum of electronic and thermal Free Energies=         -778.285899

                     E (Thermal)             CV                S
                      KCal/Mol        Cal/Mol-Kelvin    Cal/Mol-Kelvin
 Total                  156.947             56.450            131.949
 Electronic               0.000              0.000              0.000
 Translational            0.889              2.981             42.110
 Rotational               0.889              2.981             32.950
 Vibrational            155.170             50.489             56.889
 Vibration     1          0.593              1.985              6.325
 Vibration     2          0.593              1.985              6.166
 Vibration     3          0.595              1.979              4.989
 Vibration     4          0.597              1.973              4.460
 Vibration     5          0.597              1.971              4.298
 Vibration     6          0.598              1.968              4.143
 Vibration     7          0.611              1.925              2.968
 Vibration     8          0.618              1.903              2.675
 Vibration     9          0.622              1.889              2.526
 Vibration    10          0.649              1.806              1.933
 Vibration    11          0.658              1.776              1.787
 Vibration    12          0.663              1.761              1.723
 Vibration    13          0.695              1.668              1.400
 Vibration    14          0.720              1.595              1.210
 Vibration    15          0.729              1.571              1.157
 Vibration    16          0.736              1.551              1.115
 Vibration    17          0.772              1.454              0.935
 Vibration    18          0.784              1.424              0.887
 Vibration    19          0.857              1.246              0.653
 Vibration    20          0.869              1.218              0.623
 Vibration    21          0.900              1.150              0.554
 Vibration    22          0.931              1.087              0.496

 Optimization completed.
    -- Stationary point found.
 Normal termination of Gaussian 09 at Mon Jul 16 13:14:55 2018.
