 Gaussian 09, Revision E.01,

 ----------------------------------------------------------------------
 # M062X/Gen 6D SCF=Tight INT(grid=ultrafine) OPT IOP(2/17=4) maxdisk=2
 147483648
 ----------------------------------------------------------------------

 --------------------------------
 3Chloro4TFM_a1.M062X_6-31pGd_opt
 --------------------------------
 Symbolic Z-matrix:
 Charge = -1 Multiplicity = 1

 SCF Done:  E(RM062X) =  -1369.99561646     A.U. after   16 cycles
 SCF Done:  E(RM062X) =  -1369.99795935     A.U. after   15 cycles
 SCF Done:  E(RM062X) =  -1369.99806879     A.U. after   16 cycles
 SCF Done:  E(RM062X) =  -1369.99902526     A.U. after   14 cycles
 SCF Done:  E(RM062X) =  -1369.99907203     A.U. after   14 cycles
 SCF Done:  E(RM062X) =  -1369.99915903     A.U. after   14 cycles
 SCF Done:  E(RM062X) =  -1369.99928503     A.U. after   14 cycles
 SCF Done:  E(RM062X) =  -1369.99936533     A.U. after   13 cycles
 SCF Done:  E(RM062X) =  -1369.99943204     A.U. after   14 cycles
 SCF Done:  E(RM062X) =  -1369.99948838     A.U. after   13 cycles
 SCF Done:  E(RM062X) =  -1369.99953780     A.U. after   13 cycles
 SCF Done:  E(RM062X) =  -1369.99954656     A.U. after   12 cycles
 SCF Done:  E(RM062X) =  -1369.99955055     A.U. after   11 cycles
 SCF Done:  E(RM062X) =  -1369.99955461     A.U. after   12 cycles
 SCF Done:  E(RM062X) =  -1369.99955547     A.U. after   11 cycles
 SCF Done:  E(RM062X) =  -1369.99955579     A.U. after   11 cycles
 SCF Done:  E(RM062X) =  -1369.99955587     A.U. after    9 cycles
 Optimization completed.
    -- Stationary point found.
 Normal termination of Gaussian 09 at Wed Oct 31 13:08:32 2018.
 Gaussian 09:  ES64L-G09RevE.01 30-Nov-2015

 ----------------------------------------------------------------------
 # M062X/Gen 6D SCF=Tight INT(grid=ultrafine) OPT IOP(2/17=4) Freq=Nora
 man maxdisk=2147483648 geom=check guess=read IOP(2/17=4)
 ----------------------------------------------------------------------

 --------------------------------
 3Chloro4TFM_a1.M062X_6-31pGd_opt
 --------------------------------
 Structure from the checkpoint file:  "3Chloro4TFM_a1.M062X_6-31pGd_opt.chk"
 Charge = -1 Multiplicity = 1

 SCF Done:  E(RM062X) =  -1369.99955587     A.U. after    1 cycles
 Optimization completed.
    -- Stationary point found.
 Normal termination of Gaussian 09 at Wed Oct 31 13:09:24 2018.

 ----------------------------------------------------------------------
 #N Geom=AllCheck Guess=TCheck SCRF=Check Test GenChk RM062X/ChkBas Fre
 q
 ----------------------------------------------------------------------

 Structure from the checkpoint file:  "3Chloro4TFM_a1.M062X_6-31pGd_opt.chk"
 --------------------------------
 3Chloro4TFM_a1.M062X_6-31pGd_opt
 --------------------------------
 Charge = -1 Multiplicity = 1

                         Standard orientation:
 ---------------------------------------------------------------------
 Center     Atomic      Atomic             Coordinates (Angstroms)
 Number     Number       Type             X           Y           Z
 ---------------------------------------------------------------------
      1          6           0       -7.443449    0.525176    0.020176
      2          6           0       -6.221928   -0.275786   -0.427097
      3          6           0       -4.970256    0.096473    0.365580
      4          7           0       -3.822442   -0.671898   -0.047353
      5          6           0       -2.529816   -0.119357    0.025466
      6          8           0       -2.408835    1.116590    0.067555
      7          7           0       -1.589239   -1.093981    0.019134
      8          6           0       -0.269290   -0.798517    0.013753
      9          6           0        0.339764    0.495781   -0.006265
     10          6           0        0.630578   -1.904911    0.025423
     11          6           0        1.999401   -1.745536    0.018906
     12          6           0        2.589397   -0.470976   -0.001247
     13          6           0        1.715158    0.624266   -0.013569
     14          1           0       -8.336997    0.258070   -0.554377
     15          1           0       -7.270459    1.600143   -0.106779
     16          1           0       -7.661790    0.349869    1.080442
     17          1           0       -6.019559   -0.107430   -1.491343
     18          1           0       -6.422096   -1.350552   -0.312702
     19          1           0       -5.178872   -0.018244    1.445868
     20          1           0       -4.714470    1.147401    0.201345
     21          1           0       -3.825497   -1.662824    0.159312
     22          1           0       -0.289094    1.375245   -0.013476
     23          1           0        0.191029   -2.897823    0.038780
     24          1           0        2.643163   -2.619866    0.028349
     25         17           0        2.371814    2.259704   -0.038841
     26          6           0        4.070006   -0.325095   -0.007121
     27          9           0        4.552759    0.321977   -1.095433
     28          9           0        4.695734   -1.526746    0.008416
     29          9           0        4.558047    0.352588    1.060121
 ---------------------------------------------------------------------

 SCF Done:  E(RM062X) =  -1369.99955587     A.U. after    1 cycles

 The electronic state is 1-A.
 Alpha  occ. eigenvalues -- -102.55319 -25.18982 -25.18127 -25.18127 -19.45816
 Alpha  occ. eigenvalues --  -14.63548 -14.57917 -10.69557 -10.51641 -10.50006
 Alpha  occ. eigenvalues --  -10.46288 -10.46254 -10.45757 -10.45161 -10.44835
 Alpha  occ. eigenvalues --  -10.44606 -10.42020 -10.41821  -9.69982  -7.42374
 Alpha  occ. eigenvalues --   -7.41738  -7.41718  -1.34812  -1.25745  -1.25138
 Alpha  occ. eigenvalues --   -1.00965  -0.88903  -0.88142  -0.85244  -0.80674
 Alpha  occ. eigenvalues --   -0.78202  -0.74521  -0.70660  -0.68250  -0.65869
 Alpha  occ. eigenvalues --   -0.60092  -0.58488  -0.57409  -0.57112  -0.55621
 Alpha  occ. eigenvalues --   -0.52730  -0.50759  -0.47415  -0.45698  -0.45606
 Alpha  occ. eigenvalues --   -0.43831  -0.43069  -0.41893  -0.41275  -0.40837
 Alpha  occ. eigenvalues --   -0.40464  -0.39602  -0.39433  -0.38064  -0.37024
 Alpha  occ. eigenvalues --   -0.36421  -0.35556  -0.34371  -0.33638  -0.32854
 Alpha  occ. eigenvalues --   -0.32078  -0.30710  -0.29686  -0.28527  -0.27965
 Alpha  occ. eigenvalues --   -0.26176  -0.22534  -0.21502  -0.18211  -0.17675
 Alpha  occ. eigenvalues --   -0.16176  -0.10823
 Alpha virt. eigenvalues --    0.09911   0.11304   0.11629   0.12346   0.12693
 Alpha virt. eigenvalues --    0.13173   0.13407   0.13952   0.14145   0.14993
 Alpha virt. eigenvalues --    0.15336   0.15802   0.16197   0.16346   0.16774

 Mulliken charges:
               1
     1  C   -0.739190
     2  C   -0.232194
     3  C   -0.249552
     4  N   -0.522407
     5  C    0.603091
     6  O   -0.652911
     7  N   -0.493119
     8  C   -0.324656
     9  C    0.178441
    10  C   -0.517229
    11  C   -0.587416
    12  C   -1.706883
    13  C    0.956857
    14  H    0.191076
    15  H    0.207680
    16  H    0.199467
    17  H    0.217970
    18  H    0.189729
    19  H    0.172456
    20  H    0.252728
    21  H    0.392814
    22  H    0.278419
    23  H    0.189141
    24  H    0.204835
    25  Cl   0.155782
    26  C    1.562617
    27  F   -0.282848
    28  F   -0.361064
    29  F   -0.283634
 Sum of Mulliken charges =  -1.00000

 Dipole moment (field-independent basis, Debye):
    X=             -1.2275    Y=             -1.6342    Z=              0.4242  Tot=              2.0874
 Quadrupole moment (field-independent basis, Debye-Ang):
   XX=           -162.6569   YY=           -122.8866   ZZ=           -119.2661
   XY=              0.8453   XZ=             -1.6799   YZ=             -1.2685

  Exact polarizability: 280.182   2.108 169.259  -1.851   0.812 109.740
 Approx polarizability: 271.364   5.337 219.471  -1.513   0.453 141.598

                      1                      2                      3
                      A                      A                      A
 Frequencies --      8.7777                31.8758                38.4824
 Red. masses --      3.1931                 4.0487                 6.3602
 Frc consts  --      0.0001                 0.0024                 0.0055
 IR Inten    --      0.9311                 0.5299                 3.9327

                      4                      5                      6
                      A                      A                      A
 Frequencies --     51.9690                66.9925                70.0147
 Red. masses --     16.0306                 5.3216                 2.5713
 Frc consts  --      0.0255                 0.0141                 0.0074
 IR Inten    --      0.9059                 1.4595                 1.9383

                      7                      8                      9
                      A                      A                      A
 Frequencies --    116.1094               140.3639               156.4328
 Red. masses --      4.2896                 7.1177                16.6762
 Frc consts  --      0.0341                 0.0826                 0.2404
 IR Inten    --      1.9866                 2.2507                 1.6318

                     10                     11                     12
                      A                      A                      A
 Frequencies --    183.6199               200.9272               217.2281
 Red. masses --      6.6176                 4.6634                 5.0635
 Frc consts  --      0.1315                 0.1109                 0.1408
 IR Inten    --      0.0268                 2.4448                 0.6379

                     13                     14                     15
                      A                      A                      A
 Frequencies --    234.3158               247.0689               272.4782
 Red. masses --      1.1309                 7.7337                 4.4630
 Frc consts  --      0.0366                 0.2781                 0.1952
 IR Inten    --      0.0654                 2.9012                 1.2393

                     16                     17                     18
                      A                      A                      A
 Frequencies --    320.2517               346.0070               393.4785
 Red. masses --     12.9441                 4.8550                 7.0961
 Frc consts  --      0.7822                 0.3425                 0.6473
 IR Inten    --      3.3692                15.2997                27.2588

                     19                     20                     21
                      A                      A                      A
 Frequencies --    419.7085               422.4900               460.1463
 Red. masses --      9.2836                 6.4121                 3.5867
 Frc consts  --      0.9635                 0.6743                 0.4474
 IR Inten    --      0.1484                 5.2054                 2.5291

                     22                     23                     24
                      A                      A                      A
 Frequencies --    467.5716               514.2472               566.2969
 Red. masses --      8.5450                 3.9103                13.3312
 Frc consts  --      1.1007                 0.6093                 2.5189
 IR Inten    --     11.6190                 5.2955                 1.7076

                     25                     26                     27
                      A                      A                      A
 Frequencies --    591.6290               598.5737               637.7160
 Red. masses --      6.5590                 1.8391                 3.5170
 Frc consts  --      1.3527                 0.3882                 0.8427
 IR Inten    --     12.1264               139.8785                11.6086

                     28                     29                     30
                      A                      A                      A
 Frequencies --    651.4305               714.2337               728.1116
 Red. masses --      3.9250                 8.1585                 4.5922
 Frc consts  --      0.9813                 2.4521                 1.4344
 IR Inten    --     20.4161                14.7358                 0.5728

                     31                     32                     33
                      A                      A                      A
 Frequencies --    749.1253               769.0709               786.2215
 Red. masses --      1.2832                 3.8235                 4.2401
 Frc consts  --      0.4243                 1.3324                 1.5442
 IR Inten    --      6.5520                 7.4344                 9.7845

                     34                     35                     36
                      A                      A                      A
 Frequencies --    802.3665               846.2404               891.5562
 Red. masses --     10.4024                 1.5152                 1.2788
 Frc consts  --      3.9457                 0.6393                 0.5989
 IR Inten    --     19.6810                35.1440                21.4955

                     37                     38                     39
                      A                      A                      A
 Frequencies --    911.8987               913.2285               932.0690
 Red. masses --      2.4317                 1.4431                 2.8748
 Frc consts  --      1.1914                 0.7091                 1.4715
 IR Inten    --     20.5731                24.4758                16.7692

                     40                     41                     42
                      A                      A                      A
 Frequencies --    979.6347              1011.8974              1023.1449
 Red. masses --      1.2862                 3.8257                 4.9779
 Frc consts  --      0.7273                 2.3080                 3.0702
 IR Inten    --      1.5264               105.5826                17.0166

                     43                     44                     45
                      A                      A                      A
 Frequencies --   1070.4857              1123.9699              1144.3886
 Red. masses --      2.5899                 2.8141                 2.1174
 Frc consts  --      1.7486                 2.0946                 1.6338
 IR Inten    --     13.2752               483.5587                13.5686

                     46                     47                     48
                      A                      A                      A
 Frequencies --   1149.1412              1161.7422              1168.4634
 Red. masses --      2.0662                 1.7992                12.8300
 Frc consts  --      1.6076                 1.4307                10.3207
 IR Inten    --     72.9379                11.9239               275.6776

                     49                     50                     51
                      A                      A                      A
 Frequencies --   1195.0904              1198.9329              1244.6344
 Red. masses --      2.7111                 2.5575                 2.0151
 Frc consts  --      2.2814                 2.1660                 1.8392
 IR Inten    --     81.3600                77.3392               405.4813

                     52                     53                     54
                      A                      A                      A
 Frequencies --   1274.9434              1281.2474              1317.4655
 Red. masses --      1.3701                 1.4863                 1.1950
 Frc consts  --      1.3121                 1.4376                 1.2220
 IR Inten    --     91.9391               473.5156               113.4905

                     55                     56                     57
                      A                      A                      A
 Frequencies --   1330.0403              1339.1753              1359.4834
 Red. masses --      4.9301                 1.3550                 4.1422
 Frc consts  --      5.1385                 1.4318                 4.5105
 IR Inten    --     28.6842                 4.4962               616.2983

                     58                     59                     60
                      A                      A                      A
 Frequencies --   1410.1022              1426.2971              1444.0060
 Red. masses --      1.8497                 1.3095                 3.1655
 Frc consts  --      2.1670                 1.5696                 3.8889
 IR Inten    --    298.6945                14.7092               597.8542

                     61                     62                     63
                      A                      A                      A
 Frequencies --   1469.2454              1509.1492              1511.5718
 Red. masses --      5.3607                 1.5734                 1.2203
 Frc consts  --      6.8180                 2.1113                 1.6428
 IR Inten    --    192.3654               499.6022               187.8159

                     64                     65                     66
                      A                      A                      A
 Frequencies --   1522.3160              1522.8940              1532.9090
 Red. masses --      1.0783                 1.0636                 1.0812
 Frc consts  --      1.4723                 1.4534                 1.4969
 IR Inten    --     10.8155                30.4479                 9.6808

                     67                     68                     69
                      A                      A                      A
 Frequencies --   1567.0215              1588.7804              1649.1327
 Red. masses --      4.9053                 6.3841                 7.1428
 Frc consts  --      7.0968                 9.4946                11.4454
 IR Inten    --    528.8203                66.8646               610.4807

                     70                     71                     72
                      A                      A                      A
 Frequencies --   1716.8825              2968.4263              3053.9810
 Red. masses --      8.0714                 1.0735                 1.0664
 Frc consts  --     14.0178                 5.5735                 5.8601
 IR Inten    --    234.7358               133.7396                38.5874

                     73                     74                     75
                      A                      A                      A
 Frequencies --   3064.3563              3103.6547              3132.1495
 Red. masses --      1.0356                 1.0955                 1.0984
 Frc consts  --      5.7297                 6.2175                 6.3488
 IR Inten    --     50.4645                11.8933                38.7428

                     76                     77                     78
                      A                      A                      A
 Frequencies --   3136.2050              3141.6776              3219.8346
 Red. masses --      1.1013                 1.0924                 1.0869
 Frc consts  --      6.3819                 6.3528                 6.6389
 IR Inten    --     54.8293                33.3725                 6.7603

                     79                     80                     81
                      A                      A                      A
 Frequencies --   3237.5181              3288.6988              3631.2326
 Red. masses --      1.0946                 1.0914                 1.0760
 Frc consts  --      6.7597                 6.9548                 8.3596
 IR Inten    --     19.9500                13.1193                11.9353

 - Thermochemistry -
 -------------------
 Temperature   298.150 Kelvin.  Pressure   1.00000 Atm.
 Atom     1 has atomic number  6 and mass  12.00000

 Molecular mass:   279.05120 amu.
 Principal axes and moments of inertia in atomic units:
                           1         2         3
     Eigenvalues --  1621.39051********************
           X            0.99999  -0.00392  -0.00020
           Y            0.00392   0.99999   0.00130
           Z            0.00020  -0.00130   1.00000
 This molecule is an asymmetric top.
 Rotational symmetry number  1.
 Warning -- assumption of classical behavior for rotation
           may cause significant error
 Rotational temperatures (Kelvin)      0.05342     0.00609     0.00561
 Rotational constants (GHZ):           1.11308     0.12694     0.11680
 Zero-point vibrational energy     560404.1 (Joules/Mol)
                                  133.93979 (Kcal/Mol)
 Warning -- explicit consideration of  26 degrees of freedom as
           vibrations may cause significant error
 Vibrational temperatures:     12.63    45.86    55.37    74.77    96.39
          (Kelvin)            100.74   167.06   201.95   225.07   264.19
                              289.09   312.54   337.13   355.48   392.03
                              460.77   497.83   566.13   603.87   607.87
                              662.05   672.73   739.89   814.77   851.22
                              861.21   917.53   937.26  1027.62  1047.59
                             1077.82  1106.52  1131.20  1154.42  1217.55
                             1282.75  1312.02  1313.93  1341.04  1409.47
                             1455.89  1472.08  1540.19  1617.14  1646.52
                             1653.36  1671.49  1681.16  1719.47  1724.99
                             1790.75  1834.36  1843.43  1895.54  1913.63
                             1926.77  1955.99  2028.82  2052.12  2077.60
                             2113.91  2171.33  2174.81  2190.27  2191.10
                             2205.51  2254.59  2285.90  2372.73  2470.21
                             4270.90  4393.99  4408.92  4465.46  4506.46
                             4512.29  4520.17  4632.62  4658.06  4731.70
                             5224.53

 Zero-point correction=                           0.213447 (Hartree/Particle)
 Thermal correction to Energy=                    0.230880
 Thermal correction to Enthalpy=                  0.231824
 Thermal correction to Gibbs Free Energy=         0.164183
 Sum of electronic and zero-point Energies=          -1369.786109
 Sum of electronic and thermal Energies=             -1369.768676
 Sum of electronic and thermal Enthalpies=           -1369.767732
 Sum of electronic and thermal Free Energies=        -1369.835373

                     E (Thermal)             CV                S
                      KCal/Mol        Cal/Mol-Kelvin    Cal/Mol-Kelvin
 Total                  144.879             62.695            142.362
 Electronic               0.000              0.000              0.000
 Translational            0.889              2.981             42.777
 Rotational               0.889              2.981             34.231
 Vibrational            143.102             56.734             65.354
 Vibration     1          0.593              1.987              8.270
 Vibration     2          0.594              1.983              5.709
 Vibration     3          0.594              1.982              5.336
 Vibration     4          0.596              1.977              4.741
 Vibration     5          0.598              1.970              4.240
 Vibration     6          0.598              1.968              4.153
 Vibration     7          0.608              1.936              3.164
 Vibration     8          0.615              1.913              2.799
 Vibration     9          0.620              1.895              2.592
 Vibration    10          0.631              1.862              2.291
 Vibration    11          0.638              1.839              2.125
 Vibration    12          0.646              1.815              1.982
 Vibration    13          0.654              1.788              1.846
 Vibration    14          0.661              1.768              1.751
 Vibration    15          0.675              1.724              1.580
 Vibration    16          0.706              1.635              1.309
 Vibration    17          0.724              1.583              1.184
 Vibration    18          0.761              1.484              0.987
 Vibration    19          0.782              1.427              0.893
 Vibration    20          0.785              1.421              0.884
 Vibration    21          0.818              1.338              0.766
 Vibration    22          0.825              1.322              0.744
 Vibration    23          0.869              1.218              0.623
 Vibration    24          0.922              1.104              0.511
 Vibration    25          0.949              1.050              0.464
 Vibration    26          0.957              1.035              0.452

 Optimization completed.
    -- Stationary point found.
 Normal termination of Gaussian 09 at Wed Oct 31 13:54:21 2018.
