 Gaussian 09, Revision E.01,

 ----------------------------------------------------------------------
 # M062X/Gen 6D SCF=Tight INT(grid=ultrafine) OPT=CalcFC IOP(2/17=4) ma
 xdisk=2684354560
 ----------------------------------------------------------------------

 -------------------------------
 4Nitro_EtO_c3.M062X_6-31pGd_opt
 -------------------------------
 Symbolic Z-matrix:
 Charge = -1 Multiplicity = 1

 SCF Done:  E(RM062X) =  -1046.25055107     A.U. after   16 cycles
 SCF Done:  E(RM062X) =  -1046.25604566     A.U. after   16 cycles
 SCF Done:  E(RM062X) =  -1046.25576259     A.U. after   15 cycles
 SCF Done:  E(RM062X) =  -1046.25730007     A.U. after   12 cycles
 SCF Done:  E(RM062X) =  -1046.25938251     A.U. after   15 cycles
 SCF Done:  E(RM062X) =  -1046.25997524     A.U. after   16 cycles
 SCF Done:  E(RM062X) =  -1046.25589176     A.U. after   17 cycles
 SCF Done:  E(RM062X) =  -1046.26024877     A.U. after   15 cycles
 SCF Done:  E(RM062X) =  -1046.26065408     A.U. after   14 cycles
 SCF Done:  E(RM062X) =  -1046.26072220     A.U. after   15 cycles
 SCF Done:  E(RM062X) =  -1046.26084383     A.U. after   14 cycles
 SCF Done:  E(RM062X) =  -1046.26086737     A.U. after   13 cycles
 SCF Done:  E(RM062X) =  -1046.26090732     A.U. after   14 cycles
 SCF Done:  E(RM062X) =  -1046.26093375     A.U. after   13 cycles
 SCF Done:  E(RM062X) =  -1046.26094032     A.U. after   13 cycles
 SCF Done:  E(RM062X) =  -1046.26094498     A.U. after   13 cycles
 SCF Done:  E(RM062X) =  -1046.26094584     A.U. after   11 cycles
 SCF Done:  E(RM062X) =  -1046.26094604     A.U. after   11 cycles
 SCF Done:  E(RM062X) =  -1046.26094606     A.U. after    9 cycles
 Optimization completed.
    -- Stationary point found.
 Normal termination of Gaussian 09 at Mon Apr  8 18:48:35 2019.
 Gaussian 09:  ES64L-G09RevE.01 30-Nov-2015

 ----------------------------------------------------------------------
 # M062X/Gen 6D SCF=Tight INT(grid=ultrafine) Freq=Noraman maxdisk=2684
 354560 geom=check guess=read IOP(2/17=4)
 ----------------------------------------------------------------------

 -------------------------------
 4Nitro_EtO_c3.M062X_6-31pGd_opt
 -------------------------------
 Structure from the checkpoint file:  "4Nitro_EtO_c3.M062X_6-31pGd_opt.chk"
 Charge = -1 Multiplicity = 1

                         Standard orientation:
 ---------------------------------------------------------------------
 Center     Atomic      Atomic             Coordinates (Angstroms)
 Number     Number       Type             X           Y           Z
 ---------------------------------------------------------------------
      1          6           0       -3.849985   -0.335367    0.055449
      2          6           0       -3.136689    0.866544    0.107300
      3          6           0       -1.761214    0.840462    0.012288
      4          6           0       -1.064797   -0.386775   -0.136381
      5          6           0       -1.807175   -1.590016   -0.186534
      6          6           0       -3.188203   -1.554321   -0.090296
      7          7           0        0.300163   -0.305264   -0.221298
      8          6           0        1.205174   -1.355643   -0.365511
      9          7           0        2.489340   -0.932161   -0.406736
     10          8           0        0.873186   -2.540255   -0.453534
     11          6           0        3.562874   -1.890205   -0.530959
     12          6           0        3.918186   -2.575535    0.790229
     13          6           0        5.046383   -3.589723    0.614263
     14          1           0       -1.181445    1.759437    0.049908
     15          1           0       -1.282969   -2.528129   -0.301451
     16          1           0        0.693268    0.661954   -0.166435
     17          1           0        2.731047    0.071016   -0.293887
     18          1           0        4.435209   -1.351125   -0.918425
     19          1           0        3.277247   -2.651363   -1.267708
     20          1           0        3.017436   -3.069527    1.171351
     21          1           0        4.204323   -1.807149    1.518643
     22          1           0        4.758626   -4.372598   -0.097355
     23          1           0        5.303061   -4.076730    1.560945
     24          1           0        5.953403   -3.107412    0.229557
     25          1           0       -3.671327    1.802562    0.220960
     26          1           0       -3.766401   -2.470637   -0.127792
     27          7           0       -5.293091   -0.313662    0.154100
     28          8           0       -5.898816   -1.379531    0.105524
     29          8           0       -5.852470    0.770513    0.282451
     30          8           0        1.120026    2.320158   -0.048895
     31          6           0        2.355677    2.575689   -0.039174
     32          8           0        3.286704    1.735923   -0.122689
     33          6           0        2.776644    4.048108    0.088505
     34          6           0        1.616256    5.032823    0.161368
     35          1           0        3.430864    4.269805   -0.763626
     36          1           0        3.413384    4.122428    0.978872
     37          1           0        0.990593    4.959235   -0.732875
     38          1           0        1.976639    6.064862    0.252202
     39          1           0        0.974334    4.810286    1.018539
 ---------------------------------------------------------------------

 SCF Done:  E(RM062X) =  -1046.26094606     A.U. after    1 cycles

 The electronic state is 1-A.
 Alpha  occ. eigenvalues --  -19.58110 -19.58094 -19.49814 -19.47669 -19.47113
 Alpha  occ. eigenvalues --  -14.91407 -14.67653 -14.65588 -10.56827 -10.52274
 Alpha  occ. eigenvalues --  -10.51523 -10.50283 -10.47718 -10.47653 -10.47638
 Alpha  occ. eigenvalues --  -10.45864 -10.45632 -10.45620 -10.44776 -10.43311
 Alpha  occ. eigenvalues --  -10.43244  -1.26508  -1.07690  -1.05990  -1.03747
 Alpha  occ. eigenvalues --   -0.94668  -0.93973  -0.91253  -0.87965  -0.79808
 Alpha  occ. eigenvalues --   -0.78007  -0.76211  -0.75370  -0.70392  -0.66462
 Alpha  occ. eigenvalues --   -0.62145  -0.61578  -0.59917  -0.57635  -0.55186
 Alpha  occ. eigenvalues --   -0.54517  -0.52605  -0.52389  -0.51111  -0.49797
 Alpha  occ. eigenvalues --   -0.46634  -0.44027  -0.43878  -0.42355  -0.42141
 Alpha  occ. eigenvalues --   -0.42065  -0.41860  -0.41109  -0.40327  -0.39105
 Alpha  occ. eigenvalues --   -0.38729  -0.38073  -0.36849  -0.35681  -0.34984
 Alpha  occ. eigenvalues --   -0.34508  -0.33893  -0.33243  -0.31942  -0.31713
 Alpha  occ. eigenvalues --   -0.31141  -0.30075  -0.29345  -0.29201  -0.28175
 Alpha  occ. eigenvalues --   -0.27822  -0.27786  -0.23352  -0.22470  -0.20574
 Alpha  occ. eigenvalues --   -0.20077  -0.19939  -0.19325  -0.16328
 Alpha virt. eigenvalues --    0.04627   0.10010   0.10668   0.11185   0.11285
 Alpha virt. eigenvalues --    0.11761   0.11973   0.12515   0.12867   0.13657
 Alpha virt. eigenvalues --    0.14012   0.14248   0.14675   0.14984   0.15543

 Mulliken charges:
               1
     1  C   -0.020336
     2  C   -0.160798
     3  C   -0.547583
     4  C    0.349014
     5  C    0.460600
     6  C   -0.824720
     7  N   -0.663528
     8  C    0.700539
     9  N   -0.616471
    10  O   -0.609485
    11  C   -0.372797
    12  C   -0.136678
    13  C   -0.828861
    14  H    0.280519
    15  H    0.272918
    16  H    0.515781
    17  H    0.530920
    18  H    0.206885
    19  H    0.225176
    20  H    0.234576
    21  H    0.213092
    22  H    0.205416
    23  H    0.195581
    24  H    0.199029
    25  H    0.240658
    26  H    0.238105
    27  N   -0.330779
    28  O   -0.072940
    29  O   -0.079438
    30  O   -0.674848
    31  C    0.696601
    32  O   -0.626364
    33  C   -0.515237
    34  C   -0.712677
    35  H    0.210489
    36  H    0.210598
    37  H    0.216202
    38  H    0.173771
    39  H    0.217071
 Sum of Mulliken charges =  -1.00000

 Dipole moment (field-independent basis, Debye):
    X=              2.8887    Y=             -1.0067    Z=              0.4103  Tot=              3.0865
 Quadrupole moment (field-independent basis, Debye-Ang):
   XX=           -210.7221   YY=           -153.9101   ZZ=           -130.4214
   XY=             -9.3002   XZ=              2.8478   YZ=             -1.1098

  Exact polarizability: 324.376 -10.039 217.403  -7.199   5.468 125.860
 Approx polarizability: 333.259  -3.942 260.209 -10.464   9.062 161.833

                      1                      2                      3
                      A                      A                      A
 Frequencies --     20.2102                22.1561                32.3902
 Red. masses --      3.4662                 4.0280                 4.7910
 Frc consts  --      0.0008                 0.0012                 0.0030
 IR Inten    --      0.0391                 0.2289                 0.0905

                      4                      5                      6
                      A                      A                      A
 Frequencies --     33.5562                49.2608                51.0662
 Red. masses --      3.7254                 3.1723                 5.6252
 Frc consts  --      0.0025                 0.0045                 0.0086
 IR Inten    --      0.1480                 1.0876                 1.5000

                      7                      8                      9
                      A                      A                      A
 Frequencies --     60.5629                66.5122                80.0977
 Red. masses --      8.1671                 4.3696                 4.4660
 Frc consts  --      0.0176                 0.0114                 0.0169
 IR Inten    --      0.4926                 0.2375                 5.4058

                     10                     11                     12
                      A                      A                      A
 Frequencies --     85.1613                87.5729               109.5186
 Red. masses --      2.8107                 3.9380                 4.8036
 Frc consts  --      0.0120                 0.0178                 0.0339
 IR Inten    --      2.8855                 1.6766                 7.5474

                     13                     14                     15
                      A                      A                      A
 Frequencies --    136.0939               154.4156               166.0896
 Red. masses --      4.6004                 8.0493                 5.8925
 Frc consts  --      0.0502                 0.1131                 0.0958
 IR Inten    --      1.6549                 0.4580                46.9416

                     16                     17                     18
                      A                      A                      A
 Frequencies --    221.4867               232.9454               241.3963
 Red. masses --      1.1189                 2.3177                 1.7120
 Frc consts  --      0.0323                 0.0741                 0.0588
 IR Inten    --      0.4367                 0.6111                 0.8863

                     19                     20                     21
                      A                      A                      A
 Frequencies --    250.1546               292.1186               303.4557
 Red. masses --      4.6088                 3.6984                 4.1035
 Frc consts  --      0.1699                 0.1859                 0.2226
 IR Inten    --      0.4633                 1.6013                17.8239

                     22                     23                     24
                      A                      A                      A
 Frequencies --    304.6651               324.9221               374.1819
 Red. masses --      4.9498                 3.8785                 6.4764
 Frc consts  --      0.2707                 0.2413                 0.5343
 IR Inten    --      1.6075                11.8875                 1.7341

                     25                     26                     27
                      A                      A                      A
 Frequencies --    427.0551               429.8935               504.6721
 Red. masses --      7.3273                 3.2007                 2.9513
 Frc consts  --      0.7873                 0.3485                 0.4429
 IR Inten    --     15.4964                 0.0104                10.4899

                     28                     29                     30
                      A                      A                      A
 Frequencies --    519.8079               543.5295               547.0125
 Red. masses --      5.6830                 5.7587                 6.3565
 Frc consts  --      0.9047                 1.0024                 1.1206
 IR Inten    --     14.6785                 1.1542                 8.7552

                     31                     32                     33
                      A                      A                      A
 Frequencies --    584.5974               635.1654               658.7074
 Red. masses --      1.9771                 6.9441                 4.6601
 Frc consts  --      0.3981                 1.6506                 1.1913
 IR Inten    --      0.7497                 2.4168                47.7618

                     34                     35                     36
                      A                      A                      A
 Frequencies --    693.4996               707.8068               730.7119
 Red. masses --      6.0484                 3.7179                 1.7019
 Frc consts  --      1.7139                 1.0974                 0.5354
 IR Inten    --      8.6375                 4.7267                 5.7407

                     37                     38                     39
                      A                      A                      A
 Frequencies --    770.6470               771.9830               774.0858
 Red. masses --      6.3023                 7.3875                 1.7839
 Frc consts  --      2.2053                 2.5940                 0.6298
 IR Inten    --      7.4905                51.1288                 1.1833

                     40                     41                     42
                      A                      A                      A
 Frequencies --    820.5213               843.6991               857.0309
 Red. masses --      1.4328                 1.2421                 3.6170
 Frc consts  --      0.5683                 0.5209                 1.5653
 IR Inten    --      3.8401                11.7124                41.0585

                     43                     44                     45
                      A                      A                      A
 Frequencies --    860.6110               887.5482               888.6874
 Red. masses --      1.3607                 3.4212                 1.7425
 Frc consts  --      0.5938                 1.5878                 0.8108
 IR Inten    --     20.6730                38.0820                39.1076

                     46                     47                     48
                      A                      A                      A
 Frequencies --    894.3042               896.2871               909.1952
 Red. masses --      1.5679                 3.2099                 2.1523
 Frc consts  --      0.7388                 1.5193                 1.0482
 IR Inten    --      1.9627                 7.6337                 7.8146

                     49                     50                     51
                      A                      A                      A
 Frequencies --    988.9453              1006.9342              1021.0433
 Red. masses --      1.1032                 1.2474                 2.2498
 Frc consts  --      0.6357                 0.7452                 1.3819
 IR Inten    --     81.2107                 7.8329                26.4185

                     52                     53                     54
                      A                      A                      A
 Frequencies --   1023.4517              1024.3107              1031.5513
 Red. masses --      1.2904                 2.2107                 2.8285
 Frc consts  --      0.7964                 1.3666                 1.7733
 IR Inten    --     10.9138                56.2749                 4.6889

                     55                     56                     57
                      A                      A                      A
 Frequencies --   1066.6878              1108.7798              1112.7818
 Red. masses --      2.6450                 1.7754                 2.3751
 Frc consts  --      1.7732                 1.2860                 1.7328
 IR Inten    --      0.6276                 0.7644                 6.2469

                     58                     59                     60
                      A                      A                      A
 Frequencies --   1139.0113              1149.4784              1154.5966
 Red. masses --      2.1926                 1.4857                 1.6437
 Frc consts  --      1.6760                 1.1566                 1.2911
 IR Inten    --     29.7472               248.6817               195.8638

                     61                     62                     63
                      A                      A                      A
 Frequencies --   1185.8854              1193.7454              1223.5801
 Red. masses --      3.9774                 1.9145                 1.5034
 Frc consts  --      3.2956                 1.6074                 1.3261
 IR Inten    --      4.7313                 7.8466                20.2064

                     64                     65                     66
                      A                      A                      A
 Frequencies --   1286.6220              1292.8693              1314.2532
 Red. masses --      1.1857                 1.2241                 1.8298
 Frc consts  --      1.1565                 1.2055                 1.8621
 IR Inten    --      0.2343                20.0282               644.5512

                     67                     68                     69
                      A                      A                      A
 Frequencies --   1332.1188              1336.1652              1345.1941
 Red. masses --      1.4104                 1.6283                 1.7135
 Frc consts  --      1.4746                 1.7128                 1.8269
 IR Inten    --     92.3657                29.4343               501.6112

                     70                     71                     72
                      A                      A                      A
 Frequencies --   1353.0502              1364.2827              1399.2469
 Red. masses --      1.2154                 2.6215                 4.4637
 Frc consts  --      1.3110                 2.8748                 5.1491
 IR Inten    --      1.5467               241.4117               608.3408

                     73                     74                     75
                      A                      A                      A
 Frequencies --   1422.2387              1424.7004              1427.4963
 Red. masses --      1.3250                 1.2703                 1.5842
 Frc consts  --      1.5791                 1.5192                 1.9020
 IR Inten    --     34.3652                 5.4593                51.8283

                     76                     77                     78
                      A                      A                      A
 Frequencies --   1441.2945              1473.8797              1483.9860
 Red. masses --      6.1407                 3.5883                 3.7107
 Frc consts  --      7.5158                 4.5927                 4.8147
 IR Inten    --    625.8726               310.4410                13.7120

                     79                     80                     81
                      A                      A                      A
 Frequencies --   1491.6907              1495.9717              1512.1362
 Red. masses --      1.2397                 1.0970                 1.0397
 Frc consts  --      1.6253                 1.4464                 1.4007
 IR Inten    --     28.1312                 8.3497                 5.1197

                     82                     83                     84
                      A                      A                      A
 Frequencies --   1514.4879              1523.7821              1524.2951
 Red. masses --      1.0696                 1.0419                 1.1056
 Frc consts  --      1.4454                 1.4254                 1.5134
 IR Inten    --      0.7238                 6.3571                61.5280

                     85                     86                     87
                      A                      A                      A
 Frequencies --   1529.4818              1565.8481              1609.5871
 Red. masses --      1.0697                 2.8678                 4.5335
 Frc consts  --      1.4744                 4.1428                 6.9200
 IR Inten    --      7.0898               141.4966               227.8283

                     88                     89                     90
                      A                      A                      A
 Frequencies --   1633.1404              1671.6088              1676.7292
 Red. masses --      2.5373                 4.2483                 4.5454
 Frc consts  --      3.9873                 6.9942                 7.5291
 IR Inten    --     98.6124               215.8281               568.9372

                     91                     92                     93
                      A                      A                      A
 Frequencies --   1696.8198              1719.6949              1792.7207
 Red. masses --      3.5794                 3.5189                 3.0680
 Frc consts  --      6.0720                 6.1314                 5.8095
 IR Inten    --    295.3058               679.1669               355.2735

                     94                     95                     96
                      A                      A                      A
 Frequencies --   3007.0443              3062.6654              3067.7597
 Red. masses --      1.1004                 1.0363                 1.0456
 Frc consts  --      5.8622                 5.7272                 5.7978
 IR Inten    --   1124.3708                43.3857                99.3624

                     97                     98                     99
                      A                      A                      A
 Frequencies --   3069.2008              3076.2565              3082.0123
 Red. masses --      1.0588                 1.0568                 1.0613
 Frc consts  --      5.8763                 5.8926                 5.9398
 IR Inten    --     35.7927                25.6253                58.6696

                    100                    101                    102
                      A                      A                      A
 Frequencies --   3108.3921              3109.1153              3121.8676
 Red. masses --      1.1013                 1.1015                 1.1040
 Frc consts  --      6.2693                 6.2734                 6.3395
 IR Inten    --     15.2004                24.1386                 1.2727

                    103                    104                    105
                      A                      A                      A
 Frequencies --   3138.1358              3139.4942              3142.1260
 Red. masses --      1.1008                 1.0961                 1.1056
 Frc consts  --      6.3871                 6.3656                 6.4313
 IR Inten    --     54.4474                55.5899                46.5727

                    106                    107                    108
                      A                      A                      A
 Frequencies --   3161.4456              3163.4514              3225.5463
 Red. masses --      1.1023                 1.0931                 1.0926
 Frc consts  --      6.4909                 6.4449                 6.6976
 IR Inten    --     36.6148              1966.5120                36.3989

                    109                    110                    111
                      A                      A                      A
 Frequencies --   3258.4897              3262.7094              3295.5449
 Red. masses --      1.0910                 1.0931                 1.0931
 Frc consts  --      6.8252                 6.8558                 6.9948
 IR Inten    --      0.4003                 0.0763                 7.6954

 - Thermochemistry -
 -------------------
 Temperature   298.150 Kelvin.  Pressure   1.00000 Atm.
 Atom     1 has atomic number  6 and mass  12.00000

 Molecular mass:   296.12465 amu.
 Principal axes and moments of inertia in atomic units:
                           1         2         3
     Eigenvalues --  5346.87738********************
           X            0.99980  -0.01945   0.00353
           Y            0.01945   0.99981  -0.00244
           Z           -0.00348   0.00251   0.99999
 This molecule is an asymmetric top.
 Rotational symmetry number  1.
 Warning -- assumption of classical behavior for rotation
           may cause significant error
 Rotational temperatures (Kelvin)      0.01620     0.00714     0.00504
 Rotational constants (GHZ):           0.33753     0.14881     0.10494
 Zero-point vibrational energy     828022.1 (Joules/Mol)
                                  197.90203 (Kcal/Mol)
 Warning -- explicit consideration of  31 degrees of freedom as
           vibrations may cause significant error
 Vibrational temperatures:     29.08    31.88    46.60    48.28    70.88
          (Kelvin)             73.47    87.14    95.70   115.24   122.53
                              126.00   157.57   195.81   222.17   238.97
                              318.67   335.16   347.32   359.92   420.29
                              436.60   438.34   467.49   538.36   614.44
                              618.52   726.11   747.89   782.02   787.03
                              841.10   913.86   947.73   997.79  1018.37
                             1051.33  1108.79  1110.71  1113.74  1180.55
                             1213.89  1233.07  1238.23  1276.98  1278.62
                             1286.70  1289.56  1308.13  1422.87  1448.75
                             1469.05  1472.52  1473.75  1484.17  1534.72
                             1595.28  1601.04  1638.78  1653.84  1661.20
                             1706.22  1717.53  1760.46  1851.16  1860.15
                             1890.91  1916.62  1922.44  1935.43  1946.74
                             1962.90  2013.20  2046.28  2049.82  2053.85
                             2073.70  2120.58  2135.12  2146.21  2152.37
                             2175.62  2179.01  2192.38  2193.12  2200.58
                             2252.90  2315.83  2349.72  2405.07  2412.44
                             2441.34  2474.25  2579.32  4326.46  4406.49
                             4413.82  4415.89  4426.04  4434.32  4472.28
                             4473.32  4491.67  4515.07  4517.03  4520.81
                             4548.61  4551.50  4640.84  4688.23  4694.31
                             4741.55

 Zero-point correction=                           0.315377 (Hartree/Particle)
 Thermal correction to Energy=                    0.337491
 Thermal correction to Enthalpy=                  0.338435
 Thermal correction to Gibbs Free Energy=         0.258985
 Sum of electronic and zero-point Energies=          -1045.945569
 Sum of electronic and thermal Energies=             -1045.923455
 Sum of electronic and thermal Enthalpies=           -1045.922511
 Sum of electronic and thermal Free Energies=        -1046.001961

                     E (Thermal)             CV                S
                      KCal/Mol        Cal/Mol-Kelvin    Cal/Mol-Kelvin
 Total                  211.779             77.416            167.217
 Electronic               0.000              0.000              0.000
 Translational            0.889              2.981             42.954
 Rotational               0.889              2.981             35.366
 Vibrational            210.001             71.454             88.897
 Vibration     1          0.593              1.986              6.613
 Vibration     2          0.593              1.985              6.431
 Vibration     3          0.594              1.983              5.677
 Vibration     4          0.594              1.983              5.607
 Vibration     5          0.595              1.978              4.847
 Vibration     6          0.595              1.977              4.776
 Vibration     7          0.597              1.973              4.439
 Vibration     8          0.598              1.970              4.254
 Vibration     9          0.600              1.963              3.888
 Vibration    10          0.601              1.959              3.768
 Vibration    11          0.601              1.958              3.714
 Vibration    12          0.606              1.942              3.277
 Vibration    13          0.614              1.917              2.858
 Vibration    14          0.620              1.898              2.617
 Vibration    15          0.624              1.884              2.479
 Vibration    16          0.648              1.808              1.947
 Vibration    17          0.654              1.791              1.856
 Vibration    18          0.658              1.777              1.793
 Vibration    19          0.663              1.763              1.729
 Vibration    20          0.687              1.688              1.462
 Vibration    21          0.695              1.667              1.398
 Vibration    22          0.696              1.665              1.391
 Vibration    23          0.709              1.626              1.285
 Vibration    24          0.745              1.525              1.063
 Vibration    25          0.789              1.411              0.868
 Vibration    26          0.791              1.405              0.859
 Vibration    27          0.860              1.240              0.647
 Vibration    28          0.875              1.206              0.610
 Vibration    29          0.899              1.154              0.558
 Vibration    30          0.902              1.146              0.550
 Vibration    31          0.942              1.065              0.477

 Optimization completed.
    -- Stationary point found.
 Normal termination of Gaussian 09 at Mon Apr  8 19:31:50 2019.
