 Gaussian 09, Revision E.01,

 ----------------------------------------------------------------------
 # M062X/Gen 6D SCF=Tight INT(grid=ultrafine) OPT IOP(2/17=4) SCRF=(SMD
 ,Solvent=h2o) maxdisk=2684354560
 ----------------------------------------------------------------------

 -------------------------------------
 4Nitro_EtO_c3.M062X_6-31pGd_opt_water
 -------------------------------------
 Symbolic Z-matrix:
 Charge = -1 Multiplicity = 1

 SCF Done:  E(RM062X) =  -1046.33102584     A.U. after   15 cycles
 SCF Done:  E(RM062X) =  -1046.33266202     A.U. after   14 cycles
 SCF Done:  E(RM062X) =  -1046.33286264     A.U. after   14 cycles
 SCF Done:  E(RM062X) =  -1046.33147046     A.U. after   16 cycles
 SCF Done:  E(RM062X) =  -1046.33302155     A.U. after   12 cycles
 SCF Done:  E(RM062X) =  -1046.33283109     A.U. after   14 cycles
 SCF Done:  E(RM062X) =  -1046.33311817     A.U. after   15 cycles
 SCF Done:  E(RM062X) =  -1046.33328164     A.U. after   13 cycles
 SCF Done:  E(RM062X) =  -1046.33332581     A.U. after   13 cycles
 SCF Done:  E(RM062X) =  -1046.33333779     A.U. after   12 cycles
 SCF Done:  E(RM062X) =  -1046.33337509     A.U. after   11 cycles
 SCF Done:  E(RM062X) =  -1046.33338136     A.U. after   11 cycles
 SCF Done:  E(RM062X) =  -1046.33338534     A.U. after   12 cycles
 SCF Done:  E(RM062X) =  -1046.33338735     A.U. after   12 cycles
 SCF Done:  E(RM062X) =  -1046.33338831     A.U. after   11 cycles
 SCF Done:  E(RM062X) =  -1046.33338861     A.U. after   11 cycles
 SCF Done:  E(RM062X) =  -1046.33338869     A.U. after   11 cycles
 SCF Done:  E(RM062X) =  -1046.33338875     A.U. after   10 cycles
 SCF Done:  E(RM062X) =  -1046.33338886     A.U. after    9 cycles
 Optimization completed.
    -- Stationary point found.
 Normal termination of Gaussian 09 at Tue Apr  9 13:00:44 2019.
 Gaussian 09:  ES64L-G09RevE.01 30-Nov-2015

 ----------------------------------------------------------------------
 # M062X/Gen 6D SCF=Tight INT(grid=ultrafine) SCRF=(SMD,Solvent=h2o) Fr
 eq=Noraman maxdisk=2684354560 geom=check guess=read IOP(2/17=4)
 ----------------------------------------------------------------------

 -------------------------------------
 4Nitro_EtO_c3.M062X_6-31pGd_opt_water
 -------------------------------------
 Structure from the checkpoint file:  "4Nitro_EtO_c3.M062X_6-31pGd_opt_water.chk"
 Charge = -1 Multiplicity = 1

                         Standard orientation:
 ---------------------------------------------------------------------
 Center     Atomic      Atomic             Coordinates (Angstroms)
 Number     Number       Type             X           Y           Z
 ---------------------------------------------------------------------
      1          6           0       -3.904998   -0.203872    0.077192
      2          6           0       -3.149463    0.971222    0.080963
      3          6           0       -1.779757    0.880728   -0.051784
      4          6           0       -1.140642   -0.373237   -0.189526
      5          6           0       -1.926947   -1.544150   -0.187609
      6          6           0       -3.303037   -1.453423   -0.055022
      7          7           0        0.234583   -0.345629   -0.311289
      8          6           0        1.102540   -1.414302   -0.477636
      9          7           0        2.396767   -1.044736   -0.574747
     10          8           0        0.720254   -2.593208   -0.556223
     11          6           0        3.458958   -2.039971   -0.564704
     12          6           0        3.756991   -2.593456    0.826721
     13          6           0        4.863461   -3.642603    0.779662
     14          1           0       -1.177231    1.784104   -0.051246
     15          1           0       -1.464729   -2.514363   -0.288105
     16          1           0        0.667315    0.592606   -0.278182
     17          1           0        2.666987   -0.076099   -0.356306
     18          1           0        4.352074   -1.557599   -0.973371
     19          1           0        3.185875   -2.853273   -1.244286
     20          1           0        2.840086   -3.028113    1.242903
     21          1           0        4.049185   -1.763904    1.482262
     22          1           0        4.574095   -4.487566    0.144538
     23          1           0        5.083743   -4.032311    1.778198
     24          1           0        5.788229   -3.218016    0.372439
     25          1           0       -3.630204    1.937004    0.185500
     26          1           0       -3.906740   -2.353778   -0.053362
     27          7           0       -5.338829   -0.121597    0.213610
     28          8           0       -5.994679   -1.159733    0.205191
     29          8           0       -5.857860    0.984820    0.333763
     30          8           0        1.350877    2.277382   -0.199274
     31          6           0        2.583157    2.480294   -0.001183
     32          8           0        3.454610    1.560669    0.042133
     33          6           0        3.078413    3.908807    0.202863
     34          6           0        2.009199    4.987095    0.102954
     35          1           0        3.873004    4.079129   -0.533265
     36          1           0        3.567613    3.937027    1.184162
     37          1           0        1.532804    4.982311   -0.882375
     38          1           0        2.449711    5.976694    0.260329
     39          1           0        1.227670    4.841656    0.855078
 ---------------------------------------------------------------------

 SCF Done:  E(RM062X) =  -1046.33338886     A.U. after    1 cycles

 The electronic state is 1-A.
 Alpha  occ. eigenvalues --  -19.69288 -19.69278 -19.62035 -19.60717 -19.60305
 Alpha  occ. eigenvalues --  -15.02508 -14.79551 -14.77347 -10.68897 -10.65112
 Alpha  occ. eigenvalues --  -10.62411 -10.60852 -10.57851 -10.57833 -10.57112
 Alpha  occ. eigenvalues --  -10.56469 -10.56166 -10.53642 -10.53467 -10.52691
 Alpha  occ. eigenvalues --  -10.52606  -1.37611  -1.18710  -1.17857  -1.16546
 Alpha  occ. eigenvalues --   -1.06796  -1.06079  -1.02514  -0.98740  -0.90598
 Alpha  occ. eigenvalues --   -0.87102  -0.86613  -0.85746  -0.80744  -0.76265
 Alpha  occ. eigenvalues --   -0.72679  -0.72101  -0.69957  -0.67696  -0.66077
 Alpha  occ. eigenvalues --   -0.65312  -0.63935  -0.63313  -0.61994  -0.61171
 Alpha  occ. eigenvalues --   -0.58764  -0.54151  -0.53944  -0.53295  -0.53163
 Alpha  occ. eigenvalues --   -0.52771  -0.52336  -0.52163  -0.50857  -0.50559
 Alpha  occ. eigenvalues --   -0.49517  -0.48088  -0.47599  -0.46203  -0.45805
 Alpha  occ. eigenvalues --   -0.44407  -0.43712  -0.42372  -0.42187  -0.41438
 Alpha  occ. eigenvalues --   -0.40785  -0.40441  -0.39560  -0.39479  -0.39202
 Alpha  occ. eigenvalues --   -0.39060  -0.38350  -0.35637  -0.33868  -0.32883
 Alpha  occ. eigenvalues --   -0.32815  -0.32392  -0.31915  -0.27626
 Alpha virt. eigenvalues --   -0.06411   0.00902   0.01845   0.02950   0.03322
 Alpha virt. eigenvalues --    0.03429   0.03710   0.04206   0.04476   0.04696
 Alpha virt. eigenvalues --    0.05619   0.05979   0.06297   0.06720   0.06927

 Mulliken charges:
               1
     1  C   -0.104142
     2  C   -0.140134
     3  C   -0.577385
     4  C    0.245003
     5  C    0.558507
     6  C   -0.741169
     7  N   -0.664271
     8  C    0.777205
     9  N   -0.630753
    10  O   -0.733833
    11  C   -0.394255
    12  C   -0.125269
    13  C   -0.862537
    14  H    0.275932
    15  H    0.282906
    16  H    0.532296
    17  H    0.515298
    18  H    0.244140
    19  H    0.244008
    20  H    0.223397
    21  H    0.224793
    22  H    0.221815
    23  H    0.221480
    24  H    0.220689
    25  H    0.284877
    26  H    0.283143
    27  N   -0.205629
    28  O   -0.141155
    29  O   -0.148545
    30  O   -0.787693
    31  C    0.776855
    32  O   -0.763031
    33  C   -0.529429
    34  C   -0.738100
    35  H    0.244671
    36  H    0.246310
    37  H    0.222945
    38  H    0.218708
    39  H    0.222353
 Sum of Mulliken charges =  -1.00000

 Dipole moment (field-independent basis, Debye):
    X=              2.4161    Y=             -0.5172    Z=              0.9045  Tot=              2.6312
 Quadrupole moment (field-independent basis, Debye-Ang):
   XX=           -207.9577   YY=           -142.6458   ZZ=           -129.9377
   XY=             -8.3869   XZ=              3.9380   YZ=             -1.4498

  Exact polarizability: 435.787 -18.554 302.347 -16.379   9.647 184.013
 Approx polarizability: 324.626  -6.737 256.284 -11.624   7.356 159.728

                      1                      2                      3
                      A                      A                      A
 Frequencies --     19.6120                26.2153                28.8839
 Red. masses --      4.3629                 4.9706                 4.2582
 Frc consts  --      0.0010                 0.0020                 0.0021
 IR Inten    --      1.1553                 0.2636                 0.4529

                      4                      5                      6
                      A                      A                      A
 Frequencies --     37.2741                39.8230                50.4405
 Red. masses --      2.8579                 4.5217                 4.3542
 Frc consts  --      0.0023                 0.0042                 0.0065
 IR Inten    --      0.0763                 4.1839                 6.5207

                      7                      8                      9
                      A                      A                      A
 Frequencies --     60.0376                62.2553                75.8032
 Red. masses --      4.7293                 5.5515                 7.7192
 Frc consts  --      0.0100                 0.0127                 0.0261
 IR Inten    --      3.4961                 0.0985                 5.4298

                     10                     11                     12
                      A                      A                      A
 Frequencies --     79.2008                85.0708               110.6105
 Red. masses --      3.6595                 3.2623                 3.1788
 Frc consts  --      0.0135                 0.0139                 0.0229
 IR Inten    --     15.4761                16.6196                15.8612

                     13                     14                     15
                      A                      A                      A
 Frequencies --    132.6626               139.0248               141.0582
 Red. masses --      5.3973                 6.1677                 6.4234
 Frc consts  --      0.0560                 0.0702                 0.0753
 IR Inten    --     13.8176                31.8714                14.3404

                     16                     17                     18
                      A                      A                      A
 Frequencies --    230.9485               240.7016               246.9317
 Red. masses --      1.9524                 2.0843                 4.3493
 Frc consts  --      0.0614                 0.0711                 0.1562
 IR Inten    --      1.2485                 3.5421                 0.7482

                     19                     20                     21
                      A                      A                      A
 Frequencies --    249.6176               294.9267               303.7946
 Red. masses --      1.0912                 3.6555                 5.2073
 Frc consts  --      0.0401                 0.1873                 0.2832
 IR Inten    --      1.4789                 7.8307                 6.9926

                     22                     23                     24
                      A                      A                      A
 Frequencies --    308.9488               328.6842               371.6633
 Red. masses --      3.9198                 3.5993                 6.4569
 Frc consts  --      0.2204                 0.2291                 0.5255
 IR Inten    --     11.9596                10.0805                 0.6506

                     25                     26                     27
                      A                      A                      A
 Frequencies --    423.2862               426.3622               502.7460
 Red. masses --      3.0526                 7.0629                 2.8006
 Frc consts  --      0.3222                 0.7565                 0.4171
 IR Inten    --      0.2386                38.8831                23.1272

                     28                     29                     30
                      A                      A                      A
 Frequencies --    520.7683               536.6568               545.1242
 Red. masses --      5.6585                 5.0098                 7.3295
 Frc consts  --      0.9041                 0.8501                 1.2833
 IR Inten    --     27.8411                 1.1762                 7.6964

                     31                     32                     33
                      A                      A                      A
 Frequencies --    581.8097               633.9373               655.2586
 Red. masses --      1.9185                 6.7354                 4.8234
 Frc consts  --      0.3826                 1.5948                 1.2202
 IR Inten    --      1.9296                 7.4004                64.8967

                     34                     35                     36
                      A                      A                      A
 Frequencies --    683.2591               695.9713               705.9266
 Red. masses --      1.7009                 3.7966                 3.4581
 Frc consts  --      0.4678                 1.0835                 1.0153
 IR Inten    --    158.2619                46.4482                18.4432

                     37                     38                     39
                      A                      A                      A
 Frequencies --    734.1191               766.7163               772.0531
 Red. masses --      1.4452                 2.5686                 7.2990
 Frc consts  --      0.4589                 0.8897                 2.5634
 IR Inten    --     41.5889                44.2298                50.1290

                     40                     41                     42
                      A                      A                      A
 Frequencies --    784.9210               818.6782               823.4954
 Red. masses --      2.0840                 1.3176                 1.3421
 Frc consts  --      0.7565                 0.5203                 0.5362
 IR Inten    --     34.9215                15.9521               143.2387

                     43                     44                     45
                      A                      A                      A
 Frequencies --    849.9915               854.3234               874.1693
 Red. masses --      1.2410                 6.0341                 1.8593
 Frc consts  --      0.5282                 2.5948                 0.8371
 IR Inten    --     51.7607                62.8016               113.7578

                     46                     47                     48
                      A                      A                      A
 Frequencies --    887.2532               889.8778               894.7990
 Red. masses --      3.5149                 1.5720                 4.0454
 Frc consts  --      1.6303                 0.7334                 1.9084
 IR Inten    --     35.0294                 2.0599                38.0641

                     49                     50                     51
                      A                      A                      A
 Frequencies --    910.5066               998.6170              1011.0085
 Red. masses --      1.8622                 1.2960                 1.3392
 Frc consts  --      0.9096                 0.7615                 0.8065
 IR Inten    --     14.9309                 0.0526                 0.2002

                     52                     53                     54
                      A                      A                      A
 Frequencies --   1019.1743              1026.3885              1029.1637
 Red. masses --      3.2428                 2.5092                 1.7737
 Frc consts  --      1.9845                 1.5575                 1.1069
 IR Inten    --     83.8939                 2.1483                28.9535

                     55                     56                     57
                      A                      A                      A
 Frequencies --   1068.9903              1109.5288              1114.1194
 Red. masses --      2.5087                 1.7916                 2.3422
 Frc consts  --      1.6891                 1.2995                 1.7129
 IR Inten    --      1.9808                 2.3259                14.7978

                     58                     59                     60
                      A                      A                      A
 Frequencies --   1134.1328              1139.7154              1147.1465
 Red. masses --      2.1214                 2.0257                 1.4153
 Frc consts  --      1.6077                 1.5503                 1.0973
 IR Inten    --    698.5839               687.1029                30.7630

                     61                     62                     63
                      A                      A                      A
 Frequencies --   1169.8332              1185.4780              1218.6558
 Red. masses --      3.0488                 1.8937                 1.5864
 Frc consts  --      2.4582                 1.5680                 1.3881
 IR Inten    --      1.8105                16.2110                16.6244

                     64                     65                     66
                      A                      A                      A
 Frequencies --   1281.8414              1292.3551              1297.7142
 Red. masses --      1.3136                 1.1694                 1.9186
 Frc consts  --      1.2717                 1.1507                 1.9037
 IR Inten    --    365.9258                 0.7322              1711.7070

                     67                     68                     69
                      A                      A                      A
 Frequencies --   1328.7839              1336.7690              1338.4051
 Red. masses --      1.4193                 1.5056                 1.6862
 Frc consts  --      1.4765                 1.5852                 1.7796
 IR Inten    --    139.1181               543.6225               265.7796

                     70                     71                     72
                      A                      A                      A
 Frequencies --   1343.4663              1350.8568              1377.0823
 Red. masses --      1.1535                 2.6725                 5.9885
 Frc consts  --      1.2266                 2.8733                 6.6909
 IR Inten    --     17.0513                56.0934              1260.4309

                     73                     74                     75
                      A                      A                      A
 Frequencies --   1414.0373              1418.7238              1421.2002
 Red. masses --      3.2365                 1.3439                 1.3153
 Frc consts  --      3.8128                 1.5937                 1.5652
 IR Inten    --    363.2133                61.6245                28.0445

                     76                     77                     78
                      A                      A                      A
 Frequencies --   1424.6790              1455.3480              1471.1397
 Red. masses --      1.7624                 1.3511                 3.6473
 Frc consts  --      2.1076                 1.6860                 4.6509
 IR Inten    --     64.1859               165.2035                12.2726

                     79                     80                     81
                      A                      A                      A
 Frequencies --   1473.4300              1484.9914              1500.0097
 Red. masses --      2.8162                 1.0760                 1.0686
 Frc consts  --      3.6022                 1.3980                 1.4166
 IR Inten    --    232.8841                 8.2752                 3.7847

                     82                     83                     84
                      A                      A                      A
 Frequencies --   1501.5342              1502.5458              1507.5843
 Red. masses --      1.0443                 1.0398                 1.1275
 Frc consts  --      1.3873                 1.3831                 1.5099
 IR Inten    --     19.0937                11.3410                83.8523

                     85                     86                     87
                      A                      A                      A
 Frequencies --   1515.6631              1552.0822              1553.3554
 Red. masses --      1.0932                 2.8843                 5.9238
 Frc consts  --      1.4796                 4.0937                 8.4215
 IR Inten    --     19.0235                63.7201               833.1656

                     88                     89                     90
                      A                      A                      A
 Frequencies --   1568.1407              1608.4300              1619.9572
 Red. masses --      8.0688                 2.2474                 2.5560
 Frc consts  --     11.6904                 3.4256                 3.9519
 IR Inten    --   1429.8878              1591.7142               187.5223

                     91                     92                     93
                      A                      A                      A
 Frequencies --   1670.6429              1686.3575              1731.6003
 Red. masses --      7.6662                 5.1065                 2.0619
 Frc consts  --     12.6066                 8.5560                 3.6427
 IR Inten    --    297.9484               266.5369               559.9367

                     94                     95                     96
                      A                      A                      A
 Frequencies --   3073.0863              3074.0932              3083.3370
 Red. masses --      1.0380                 1.0587                 1.0473
 Frc consts  --      5.7757                 5.8947                 5.8663
 IR Inten    --     33.6834                39.1271                59.5958

                     97                     98                     99
                      A                      A                      A
 Frequencies --   3084.6986              3104.6167              3111.0469
 Red. masses --      1.0507                 1.0604                 1.1025
 Frc consts  --      5.8906                 6.0220                 6.2872
 IR Inten    --      9.1793                80.6230                10.0403

                    100                    101                    102
                      A                      A                      A
 Frequencies --   3120.3225              3141.1124              3152.2592
 Red. masses --      1.1015                 1.1036                 1.1020
 Frc consts  --      6.3186                 6.4156                 6.4519
 IR Inten    --      8.6349                47.1863                49.3201

                    103                    104                    105
                      A                      A                      A
 Frequencies --   3154.2901              3154.5566              3159.0051
 Red. masses --      1.1025                 1.1071                 1.1036
 Frc consts  --      6.4628                 6.4913                 6.4886
 IR Inten    --     54.3919                87.9147                57.8706

                    106                    107                    108
                      A                      A                      A
 Frequencies --   3227.2683              3248.9507              3270.5622
 Red. masses --      1.0890                 1.0913                 1.0927
 Frc consts  --      6.6824                 6.7872                 6.8861
 IR Inten    --   1275.9098                 0.9116                 3.3407

                    109                    110                    111
                      A                      A                      A
 Frequencies --   3271.6858              3315.8792              3318.2185
 Red. masses --      1.0949                 1.0929                 1.0864
 Frc consts  --      6.9051                 7.0797                 7.0480
 IR Inten    --      4.1789                10.7877              1580.0593

 - Thermochemistry -
 -------------------
 Temperature   298.150 Kelvin.  Pressure   1.00000 Atm.
 Atom     1 has atomic number  6 and mass  12.00000

 Molecular mass:   296.12465 amu.
 Principal axes and moments of inertia in atomic units:
                           1         2         3
     Eigenvalues --  5312.24894********************
           X            0.99989  -0.01440   0.00441
           Y            0.01442   0.99989  -0.00406
           Z           -0.00436   0.00412   0.99998
 This molecule is an asymmetric top.
 Rotational symmetry number  1.
 Warning -- assumption of classical behavior for rotation
           may cause significant error
 Rotational temperatures (Kelvin)      0.01630     0.00697     0.00499
 Rotational constants (GHZ):           0.33973     0.14533     0.10395
 Zero-point vibrational energy     824836.3 (Joules/Mol)
                                  197.14062 (Kcal/Mol)
 Warning -- explicit consideration of  31 degrees of freedom as
           vibrations may cause significant error
 Vibrational temperatures:     28.22    37.72    41.56    53.63    57.30
          (Kelvin)             72.57    86.38    89.57   109.06   113.95
                              122.40   159.14   190.87   200.03   202.95
                              332.28   346.32   355.28   359.14   424.33
                              437.09   444.51   472.90   534.74   609.01
                              613.44   723.34   749.27   772.13   784.31
                              837.09   912.09   942.77   983.06  1001.35
                             1015.67  1056.23  1103.13  1110.81  1129.32
                             1177.89  1184.82  1222.95  1229.18  1257.73
                             1276.56  1280.33  1287.41  1310.01  1436.79
                             1454.61  1466.36  1476.74  1480.74  1538.04
                             1596.36  1602.97  1631.76  1639.79  1650.49
                             1683.13  1705.64  1753.37  1844.28  1859.41
                             1867.12  1911.82  1923.31  1925.66  1932.95
                             1943.58  1981.31  2034.48  2041.22  2044.79
                             2049.79  2093.92  2116.64  2119.93  2136.57
                             2158.18  2160.37  2161.83  2169.07  2180.70
                             2233.10  2234.93  2256.20  2314.17  2330.75
                             2403.68  2426.29  2491.38  4421.48  4422.93
                             4436.23  4438.19  4466.85  4476.10  4489.44
                             4519.35  4535.39  4538.31  4538.70  4545.10
                             4643.31  4674.51  4705.60  4707.22  4770.80
                             4774.17

 Zero-point correction=                           0.314164 (Hartree/Particle)
 Thermal correction to Energy=                    0.336482
 Thermal correction to Enthalpy=                  0.337426
 Thermal correction to Gibbs Free Energy=         0.257336
 Sum of electronic and zero-point Energies=          -1046.019225
 Sum of electronic and thermal Energies=             -1045.996907
 Sum of electronic and thermal Enthalpies=           -1045.995963
 Sum of electronic and thermal Free Energies=        -1046.076053

                     E (Thermal)             CV                S
                      KCal/Mol        Cal/Mol-Kelvin    Cal/Mol-Kelvin
 Total                  211.146             78.211            168.565
 Electronic               0.000              0.000              0.000
 Translational            0.889              2.981             42.954
 Rotational               0.889              2.981             35.392
 Vibrational            209.368             72.249             90.219
 Vibration     1          0.593              1.986              6.673
 Vibration     2          0.593              1.985              6.097
 Vibration     3          0.593              1.984              5.905
 Vibration     4          0.594              1.982              5.399
 Vibration     5          0.594              1.981              5.268
 Vibration     6          0.595              1.977              4.800
 Vibration     7          0.597              1.973              4.456
 Vibration     8          0.597              1.972              4.384
 Vibration     9          0.599              1.965              3.997
 Vibration    10          0.600              1.963              3.911
 Vibration    11          0.601              1.960              3.770
 Vibration    12          0.606              1.941              3.258
 Vibration    13          0.613              1.921              2.907
 Vibration    14          0.615              1.914              2.817
 Vibration    15          0.615              1.912              2.789
 Vibration    16          0.653              1.794              1.872
 Vibration    17          0.658              1.778              1.798
 Vibration    18          0.661              1.768              1.752
 Vibration    19          0.662              1.763              1.733
 Vibration    20          0.689              1.683              1.446
 Vibration    21          0.695              1.667              1.396
 Vibration    22          0.698              1.657              1.368
 Vibration    23          0.712              1.618              1.267
 Vibration    24          0.743              1.530              1.073
 Vibration    25          0.785              1.420              0.881
 Vibration    26          0.788              1.413              0.871
 Vibration    27          0.858              1.244              0.651
 Vibration    28          0.876              1.204              0.608
 Vibration    29          0.892              1.169              0.573
 Vibration    30          0.900              1.150              0.554
 Vibration    31          0.939              1.071              0.482

 Normal termination of Gaussian 09 at Tue Apr  9 13:45:39 2019.
