 Gaussian 09, Revision E.01,

 ----------------------------------------------------------------------
 # M062X/Gen 6D SCF=Tight INT(grid=ultrafine) OPT=CalcFC IOP(2/17=4) ma
 xdisk=2147483648
 ----------------------------------------------------------------------

 --------------------------------
 3TFM4Chloro_a1.M062X_6-31pGd_opt
 --------------------------------
 Symbolic Z-matrix:
 Charge = -1 Multiplicity = 1

 SCF Done:  E(RM062X) =  -1369.96509368     A.U. after   17 cycles
 SCF Done:  E(RM062X) =  -1369.99081436     A.U. after   16 cycles
 SCF Done:  E(RM062X) =  -1369.99250324     A.U. after   16 cycles
 SCF Done:  E(RM062X) =  -1369.99219765     A.U. after   14 cycles
 SCF Done:  E(RM062X) =  -1369.99264865     A.U. after   12 cycles
 SCF Done:  E(RM062X) =  -1369.99304417     A.U. after   16 cycles
 SCF Done:  E(RM062X) =  -1369.91748458     A.U. after   16 cycles
 SCF Done:  E(RM062X) =  -1369.99304615     A.U. after    9 cycles
 SCF Done:  E(RM062X) =  -1369.99341105     A.U. after   14 cycles
 SCF Done:  E(RM062X) =  -1369.99373057     A.U. after   15 cycles
 SCF Done:  E(RM062X) =  -1369.99412284     A.U. after   14 cycles
 SCF Done:  E(RM062X) =  -1369.99441984     A.U. after   15 cycles
 SCF Done:  E(RM062X) =  -1369.99442690     A.U. after   11 cycles
 SCF Done:  E(RM062X) =  -1369.99444107     A.U. after   14 cycles
 SCF Done:  E(RM062X) =  -1369.99444601     A.U. after   12 cycles
 SCF Done:  E(RM062X) =  -1369.99444728     A.U. after   11 cycles
 SCF Done:  E(RM062X) =  -1369.99444734     A.U. after   11 cycles
 SCF Done:  E(RM062X) =  -1369.99444729     A.U. after   11 cycles
 SCF Done:  E(RM062X) =  -1369.99444725     A.U. after   10 cycles
 Optimization completed.
    -- Stationary point found.
 Normal termination of Gaussian 09 at Wed Feb 27 12:06:51 2019.
 Gaussian 09:  ES64L-G09RevE.01 30-Nov-2015

 ----------------------------------------------------------------------
 # M062X/Gen 6D SCF=Tight INT(grid=ultrafine) Freq=Noraman maxdisk=2147
 483648 geom=check guess=read IOP(2/17=4)
 ----------------------------------------------------------------------

 --------------------------------
 3TFM4Chloro_a1.M062X_6-31pGd_opt
 --------------------------------
 Structure from the checkpoint file:  "3TFM4Chloro_a1.M062X_6-31pGd_opt.chk"
 Charge = -1 Multiplicity = 1

                         Standard orientation:
 ---------------------------------------------------------------------
 Center     Atomic      Atomic             Coordinates (Angstroms)
 Number     Number       Type             X           Y           Z
 ---------------------------------------------------------------------
      1          6           0        7.167915    0.796836    0.070820
      2          6           0        6.025826   -0.097680   -0.408065
      3          6           0        4.728678    0.169486    0.353011
      4          7           0        3.658806   -0.689223   -0.092090
      5          6           0        2.318986   -0.253139    0.001363
      6          8           0        2.094250    0.969928    0.054843
      7          7           0        1.468117   -1.300151   -0.002226
      8          6           0        0.121455   -1.110234    0.003417
      9          6           0       -0.592617    0.124222   -0.009075
     10          6           0       -0.682651   -2.281776    0.018720
     11          6           0       -2.066338   -2.241459    0.021559
     12          6           0       -2.734518   -1.019736    0.007848
     13          6           0       -1.985742    0.160349   -0.007614
     14          1           0        8.093678    0.605366   -0.482704
     15          1           0        7.374176    0.634722    1.135605
     16          1           0        6.911806    1.854989   -0.057121
     17          1           0        6.309093   -1.153383   -0.290733
     18          1           0        5.837198    0.057649   -1.476861
     19          1           0        4.392784    1.196766    0.183767
     20          1           0        4.919339    0.069619    1.438542
     21          1           0        3.745505   -1.675810    0.119004
     22          1           0       -0.028368    1.046360   -0.017792
     23          1           0       -0.164677   -3.236873    0.026932
     24          1           0       -2.645494   -3.160770    0.033170
     25         17           0       -4.492172   -1.022751    0.010901
     26          6           0       -2.674391    1.496621   -0.022620
     27          9           0       -1.814044    2.528653   -0.033405
     28          9           0       -3.470366    1.683839    1.055315
     29          9           0       -3.468943    1.660109   -1.105447
 ---------------------------------------------------------------------

 SCF Done:  E(RM062X) =  -1369.99444725     A.U. after    1 cycles

 The electronic state is 1-A.
 Alpha  occ. eigenvalues -- -102.56068 -25.18553 -25.18251 -25.18251 -19.45225
 Alpha  occ. eigenvalues --  -14.63000 -14.57327 -10.69470 -10.51000 -10.49121
 Alpha  occ. eigenvalues --  -10.46093 -10.45842 -10.45734 -10.45518 -10.44870
 Alpha  occ. eigenvalues --  -10.44477 -10.42561 -10.42267  -9.70703  -7.43097
 Alpha  occ. eigenvalues --   -7.42454  -7.42453  -1.34927  -1.25679  -1.25350
 Alpha  occ. eigenvalues --   -1.00312  -0.88440  -0.88154  -0.85188  -0.80252
 Alpha  occ. eigenvalues --   -0.77789  -0.75993  -0.69664  -0.68098  -0.65433
 Alpha  occ. eigenvalues --   -0.60038  -0.58839  -0.57574  -0.57244  -0.55730
 Alpha  occ. eigenvalues --   -0.53060  -0.49049  -0.46325  -0.45608  -0.45426
 Alpha  occ. eigenvalues --   -0.43849  -0.43307  -0.42879  -0.41518  -0.41347
 Alpha  occ. eigenvalues --   -0.39621  -0.39387  -0.39040  -0.38123  -0.36782
 Alpha  occ. eigenvalues --   -0.35628  -0.35328  -0.34181  -0.33595  -0.32726
 Alpha  occ. eigenvalues --   -0.32014  -0.30554  -0.29698  -0.28854  -0.28022
 Alpha  occ. eigenvalues --   -0.26287  -0.21552  -0.21003  -0.19555  -0.17436
 Alpha  occ. eigenvalues --   -0.15760  -0.10068
 Alpha virt. eigenvalues --    0.10076   0.11111   0.11523   0.12412   0.12820
 Alpha virt. eigenvalues --    0.13063   0.13539   0.13900   0.14163   0.15002
 Alpha virt. eigenvalues --    0.15826   0.15939   0.16110   0.16542   0.17014

 Mulliken charges:
               1
     1  C   -0.731985
     2  C   -0.242377
     3  C   -0.237071
     4  N   -0.512506
     5  C    0.560291
     6  O   -0.657143
     7  N   -0.511975
     8  C   -0.329918
     9  C    0.106870
    10  C   -0.528414
    11  C   -0.283575
    12  C    0.506081
    13  C   -1.182927
    14  H    0.189998
    15  H    0.199257
    16  H    0.207210
    17  H    0.188343
    18  H    0.217250
    19  H    0.251230
    20  H    0.170245
    21  H    0.390187
    22  H    0.291889
    23  H    0.192831
    24  H    0.194420
    25  Cl   0.158036
    26  C    1.314182
    27  F   -0.344697
    28  F   -0.288128
    29  F   -0.287605
 Sum of Mulliken charges =  -1.00000

 Dipole moment (field-independent basis, Debye):
    X=              0.8785    Y=             -0.9842    Z=              0.4780  Tot=              1.4032
 Quadrupole moment (field-independent basis, Debye-Ang):
   XX=           -157.0240   YY=           -124.3878   ZZ=           -119.3401
   XY=              0.2279   XZ=              1.9180   YZ=             -1.2967

  Exact polarizability: 282.471  14.036 162.197   1.049   1.295 109.602
 Approx polarizability: 275.713   8.260 209.121   0.493   0.927 141.393

                      1                      2                      3
                      A                      A                      A
 Frequencies --     10.7677                33.9324                40.2133
 Red. masses --      3.0041                 4.0166                 6.1669
 Frc consts  --      0.0002                 0.0027                 0.0059
 IR Inten    --      1.1590                 0.2236                 4.0873

                      4                      5                      6
                      A                      A                      A
 Frequencies --     55.0149                69.6144                77.2608
 Red. masses --     10.9033                 2.8749                 6.0974
 Frc consts  --      0.0194                 0.0082                 0.0214
 IR Inten    --      1.0833                 2.2976                 0.6443

                      7                      8                      9
                      A                      A                      A
 Frequencies --    111.5497               128.8828               158.6422
 Red. masses --      4.3831                 6.0903                 9.4876
 Frc consts  --      0.0321                 0.0596                 0.1407
 IR Inten    --      2.8161                 0.3246                 1.7150

                     10                     11                     12
                      A                      A                      A
 Frequencies --    171.4311               205.5740               231.0294
 Red. masses --      9.7685                 4.0850                 2.1095
 Frc consts  --      0.1691                 0.1017                 0.0663
 IR Inten    --      2.1852                 2.7341                 0.1003

                     13                     14                     15
                      A                      A                      A
 Frequencies --    232.5413               265.8508               305.9774
 Red. masses --      1.8182                 4.0484                15.9839
 Frc consts  --      0.0579                 0.1686                 0.8817
 IR Inten    --      0.1659                 1.7749                 1.9521

                     16                     17                     18
                      A                      A                      A
 Frequencies --    315.8516               344.7586               348.3581
 Red. masses --      7.2314                 6.7407                 4.9601
 Frc consts  --      0.4250                 0.4720                 0.3546
 IR Inten    --      2.9794                 1.8448                18.0189

                     19                     20                     21
                      A                      A                      A
 Frequencies --    387.3160               417.3215               456.1228
 Red. masses --      9.1585                 5.4334                 6.5305
 Frc consts  --      0.8095                 0.5575                 0.8005
 IR Inten    --      6.1763                23.4760                 1.7647

                     22                     23                     24
                      A                      A                      A
 Frequencies --    468.0318               522.9382               540.7807
 Red. masses --      3.8775                 4.7196                 7.8658
 Frc consts  --      0.5004                 0.7604                 1.3553
 IR Inten    --      1.6092                 5.5016                 5.0717

                     25                     26                     27
                      A                      A                      A
 Frequencies --    591.0172               621.3933               664.2996
 Red. masses --      5.3140                 1.8663                 3.9432
 Frc consts  --      1.0936                 0.4246                 1.0252
 IR Inten    --     16.2000               128.9266                11.2085

                     28                     29                     30
                      A                      A                      A
 Frequencies --    670.5553               697.1302               724.9399
 Red. masses --      6.8010                 5.5640                 4.7801
 Frc consts  --      1.8017                 1.5932                 1.4801
 IR Inten    --     13.2944                14.4059                 1.3387

                     31                     32                     33
                      A                      A                      A
 Frequencies --    750.5577               772.9211               785.2250
 Red. masses --      1.1744                 6.6374                 3.4020
 Frc consts  --      0.3898                 2.3362                 1.2359
 IR Inten    --      5.7948                 4.6293                24.7074

                     34                     35                     36
                      A                      A                      A
 Frequencies --    801.5802               841.9120               890.3657
 Red. masses --     10.7966                 1.5052                 1.2737
 Frc consts  --      4.0872                 0.6286                 0.5949
 IR Inten    --     20.1987                27.4284                20.7372

                     37                     38                     39
                      A                      A                      A
 Frequencies --    915.6452               931.1607               940.1858
 Red. masses --      1.8619                 1.4769                 4.2292
 Frc consts  --      0.9197                 0.7545                 2.2026
 IR Inten    --      6.7418                28.2452                18.4647

                     40                     41                     42
                      A                      A                      A
 Frequencies --    971.7417              1011.9860              1027.4067
 Red. masses --      1.2977                 3.9696                 5.6381
 Frc consts  --      0.7220                 2.3952                 3.5065
 IR Inten    --      1.6259               116.0765                10.0295

                     43                     44                     45
                      A                      A                      A
 Frequencies --   1070.5061              1142.9650              1146.3417
 Red. masses --      2.5856                 2.1397                 2.0386
 Frc consts  --      1.7458                 1.6469                 1.5784
 IR Inten    --      9.3189                72.4807                22.1778

                     46                     47                     48
                      A                      A                      A
 Frequencies --   1151.8279              1159.5894              1183.9301
 Red. masses --      1.4932                 1.8251                12.8050
 Frc consts  --      1.1672                 1.4460                10.5750
 IR Inten    --     11.6692                19.1824               262.6254

                     49                     50                     51
                      A                      A                      A
 Frequencies --   1195.5239              1222.5742              1244.2076
 Red. masses --      3.0478                 6.3184                 2.0386
 Frc consts  --      2.5666                 5.5643                 1.8594
 IR Inten    --     42.0170               411.9555               208.7125

                     52                     53                     54
                      A                      A                      A
 Frequencies --   1274.9039              1283.1462              1314.2193
 Red. masses --      1.4281                 1.6324                 1.7859
 Frc consts  --      1.3676                 1.5835                 1.8174
 IR Inten    --    203.9177                88.4221                50.1012

                     55                     56                     57
                      A                      A                      A
 Frequencies --   1315.0221              1333.3602              1349.3671
 Red. masses --      2.0184                 1.4193                 2.9114
 Frc consts  --      2.0565                 1.4867                 3.1233
 IR Inten    --     11.0272               132.5770               194.7117

                     58                     59                     60
                      A                      A                      A
 Frequencies --   1410.7205              1425.1999              1445.7317
 Red. masses --      1.8596                 1.3193                 3.3359
 Frc consts  --      2.1804                 1.5788                 4.1080
 IR Inten    --    176.0170                13.3044               217.6746

                     61                     62                     63
                      A                      A                      A
 Frequencies --   1469.6062              1503.7442              1511.0550
 Red. masses --      6.4375                 1.9512                 1.0844
 Frc consts  --      8.1916                 2.5996                 1.4588
 IR Inten    --    338.6145               951.1392                23.0507

                     64                     65                     66
                      A                      A                      A
 Frequencies --   1522.1812              1522.6334              1532.6047
 Red. masses --      1.0611                 1.0697                 1.0914
 Frc consts  --      1.4486                 1.4611                 1.5104
 IR Inten    --     27.0782                 0.0828                17.1164

                     67                     68                     69
                      A                      A                      A
 Frequencies --   1545.0091              1621.4663              1644.6082
 Red. masses --      3.4514                 8.3635                 6.2206
 Frc consts  --      4.8541                12.9555                 9.9131
 IR Inten    --    588.3513                 0.5319               465.7109

                     70                     71                     72
                      A                      A                      A
 Frequencies --   1705.7059              2963.0425              3052.3086
 Red. masses --      7.9425                 1.0736                 1.0664
 Frc consts  --     13.6150                 5.5538                 5.8535
 IR Inten    --    315.3762               137.5163                39.4475

                     73                     74                     75
                      A                      A                      A
 Frequencies --   3063.4199              3102.3869              3131.5674
 Red. masses --      1.0356                 1.0956                 1.0993
 Frc consts  --      5.7262                 6.2128                 6.3516
 IR Inten    --     51.5433                12.3396                45.5512

                     76                     77                     78
                      A                      A                      A
 Frequencies --   3134.7813              3142.6403              3213.1696
 Red. masses --      1.1013                 1.0909                 1.0873
 Frc consts  --      6.3763                 6.3479                 6.6139
 IR Inten    --     53.2760                30.5215                11.4702

                     79                     80                     81
                      A                      A                      A
 Frequencies --   3230.4217              3298.6100              3625.1582
 Red. masses --      1.0948                 1.0896                 1.0758
 Frc consts  --      6.7316                 6.9854                 8.3300
 IR Inten    --     20.5606                14.8964                 9.6254

 - Thermochemistry -
 -------------------
 Temperature   298.150 Kelvin.  Pressure   1.00000 Atm.
 Atom     1 has atomic number  6 and mass  12.00000

 Molecular mass:   279.05120 amu.
 Principal axes and moments of inertia in atomic units:
                           1         2         3
     Eigenvalues --  2074.63149********************
           X            0.99994   0.01132   0.00054
           Y           -0.01132   0.99994   0.00133
           Z           -0.00052  -0.00134   1.00000
 This molecule is an asymmetric top.
 Rotational symmetry number  1.
 Warning -- assumption of classical behavior for rotation
           may cause significant error
 Rotational temperatures (Kelvin)      0.04175     0.00686     0.00605
 Rotational constants (GHZ):           0.86991     0.14302     0.12614
 Zero-point vibrational energy     560540.4 (Joules/Mol)
                                  133.97238 (Kcal/Mol)
 Warning -- explicit consideration of  25 degrees of freedom as
           vibrations may cause significant error
 Vibrational temperatures:     15.49    48.82    57.86    79.15   100.16
          (Kelvin)            111.16   160.49   185.43   228.25   246.65
                              295.77   332.40   334.57   382.50   440.23
                              454.44   496.03   501.21   557.26   600.43
                              656.26   673.39   752.39   778.06   850.34
                              894.05   955.78   964.78  1003.01  1043.03
                             1079.88  1112.06  1129.76  1153.29  1211.32
                             1281.04  1317.41  1339.73  1352.72  1398.12
                             1456.02  1478.21  1540.22  1644.47  1649.33
                             1657.22  1668.39  1703.41  1720.09  1759.01
                             1790.14  1834.30  1846.16  1890.87  1892.02
                             1918.41  1941.44  2029.71  2050.54  2080.08
                             2114.43  2163.55  2174.07  2190.08  2190.73
                             2205.07  2222.92  2332.93  2366.22  2454.13
                             4263.15  4391.59  4407.57  4463.64  4505.62
                             4510.25  4521.55  4623.03  4647.85  4745.96
                             5215.79

 Zero-point correction=                           0.213499 (Hartree/Particle)
 Thermal correction to Energy=                    0.230914
 Thermal correction to Enthalpy=                  0.231859
 Thermal correction to Gibbs Free Energy=         0.164586
 Sum of electronic and zero-point Energies=          -1369.780949
 Sum of electronic and thermal Energies=             -1369.763533
 Sum of electronic and thermal Enthalpies=           -1369.762589
 Sum of electronic and thermal Free Energies=        -1369.829861

                     E (Thermal)             CV                S
                      KCal/Mol        Cal/Mol-Kelvin    Cal/Mol-Kelvin
 Total                  144.901             62.669            141.586
 Electronic               0.000              0.000              0.000
 Translational            0.889              2.981             42.777
 Rotational               0.889              2.981             34.281
 Vibrational            143.123             56.708             64.528
 Vibration     1          0.593              1.987              7.864
 Vibration     2          0.594              1.983              5.585
 Vibration     3          0.594              1.981              5.249
 Vibration     4          0.596              1.976              4.628
 Vibration     5          0.598              1.969              4.164
 Vibration     6          0.599              1.964              3.959
 Vibration     7          0.607              1.940              3.242
 Vibration     8          0.611              1.924              2.963
 Vibration     9          0.621              1.893              2.566
 Vibration    10          0.626              1.878              2.420
 Vibration    11          0.640              1.832              2.083
 Vibration    12          0.653              1.794              1.871
 Vibration    13          0.653              1.791              1.859
 Vibration    14          0.672              1.736              1.623
 Vibration    15          0.696              1.662              1.384
 Vibration    16          0.703              1.643              1.331
 Vibration    17          0.723              1.586              1.190
 Vibration    18          0.726              1.579              1.174
 Vibration    19          0.756              1.497              1.010
 Vibration    20          0.780              1.433              0.901
 Vibration    21          0.814              1.347              0.777
 Vibration    22          0.825              1.321              0.743
 Vibration    23          0.878              1.199              0.603
 Vibration    24          0.896              1.160              0.564
 Vibration    25          0.948              1.051              0.465

 Optimization completed.
    -- Stationary point found.
 Normal termination of Gaussian 09 at Wed Feb 27 12:48:41 2019.
