 Gaussian 09, Revision E.01,

 ----------------------------------------------------------------------
 # M062X/Gen 6D SCF=Tight INT(grid=ultrafine) OPT=calcfc IOP(2/17=4) SC
 RF=(SMD,Solvent=h2o) maxdisk=2147483648
 ----------------------------------------------------------------------

 -------------------------------
 4Ketone.M062X_6-31pGd_opt_water
 -------------------------------
 Symbolic Z-matrix:
 Charge =  0 Multiplicity = 1

 SCF Done:  E(RM062X) =  -726.620243363     A.U. after   15 cycles
 SCF Done:  E(RM062X) =  -726.628670664     A.U. after   17 cycles
 SCF Done:  E(RM062X) =  -726.628982956     A.U. after   16 cycles
 SCF Done:  E(RM062X) =  -726.629472967     A.U. after   16 cycles
 SCF Done:  E(RM062X) =  -726.630518332     A.U. after   15 cycles
 SCF Done:  E(RM062X) =  -726.631153486     A.U. after   13 cycles
 SCF Done:  E(RM062X) =  -726.631335780     A.U. after   13 cycles
 SCF Done:  E(RM062X) =  -726.631590092     A.U. after   13 cycles
 SCF Done:  E(RM062X) =  -726.631630189     A.U. after   13 cycles
 SCF Done:  E(RM062X) =  -726.631637254     A.U. after   12 cycles
 SCF Done:  E(RM062X) =  -726.631641105     A.U. after   11 cycles
 SCF Done:  E(RM062X) =  -726.631642608     A.U. after   11 cycles
 SCF Done:  E(RM062X) =  -726.631643341     A.U. after   10 cycles
 SCF Done:  E(RM062X) =  -726.631643361     A.U. after   10 cycles
 SCF Done:  E(RM062X) =  -726.631643158     A.U. after   11 cycles
 SCF Done:  E(RM062X) =  -726.631642923     A.U. after   10 cycles
 SCF Done:  E(RM062X) =  -726.631642922     A.U. after    8 cycles
 Optimization completed.
    -- Stationary point found.
 Normal termination of Gaussian 09 at Mon Feb  4 11:52:01 2019.
 Gaussian 09:  ES64L-G09RevE.01 30-Nov-2015

 ----------------------------------------------------------------------
 # M062X/Gen 6D SCF=Tight INT(grid=ultrafine) OPT IOP(2/17=4) SCRF=(SMD
 ,Solvent=h2o) Freq=Noraman maxdisk=2147483648 geom=check guess=read IO
 P(2/17=4)
 ----------------------------------------------------------------------

 -------------------------------
 4Ketone.M062X_6-31pGd_opt_water
 -------------------------------
 Structure from the checkpoint file:  "4Ketone.M062X_6-31pGd_opt_water.chk"
 Charge =  0 Multiplicity = 1

 SCF Done:  E(RM062X) =  -726.631642922     A.U. after    1 cycles
 Optimization completed.
    -- Stationary point found.
 Normal termination of Gaussian 09 at Mon Feb  4 11:52:55 2019.

 ----------------------------------------------------------------------
 #N Geom=AllCheck Guess=TCheck SCRF=Check Test GenChk RM062X/ChkBas Fre
 q
 ----------------------------------------------------------------------

 Structure from the checkpoint file:  "4Ketone.M062X_6-31pGd_opt_water.chk"
 -------------------------------
 4Ketone.M062X_6-31pGd_opt_water
 -------------------------------
 Charge =  0 Multiplicity = 1

                         Standard orientation:
 ---------------------------------------------------------------------
 Center     Atomic      Atomic             Coordinates (Angstroms)
 Number     Number       Type             X           Y           Z
 ---------------------------------------------------------------------
      1          6           0       -6.839753   -0.324305   -0.025272
      2          6           0       -5.559049    0.504083   -0.024196
      3          6           0       -4.329089   -0.390089    0.012796
      4          7           0       -3.115457    0.417446   -0.001020
      5          6           0       -1.895794   -0.160003    0.046712
      6          8           0       -1.748154   -1.383482    0.183320
      7          7           0       -0.837901    0.723222   -0.053072
      8          6           0        0.528316    0.444894   -0.033531
      9          6           0        1.076743   -0.846172   -0.081830
     10          6           0        1.394325    1.554891    0.019597
     11          6           0        2.764973    1.378998    0.031570
     12          6           0        3.323524    0.091875   -0.008083
     13          6           0        2.458604   -1.006348   -0.067588
     14          1           0       -7.723572    0.319978   -0.048326
     15          1           0       -6.901589   -0.950268    0.871745
     16          1           0       -6.879153   -0.983055   -0.899776
     17          1           0       -5.545116    1.173873    0.844094
     18          1           0       -5.520439    1.134872   -0.921019
     19          1           0       -4.331307   -1.070352   -0.848134
     20          1           0       -4.338117   -1.005979    0.918644
     21          1           0       -3.199811    1.406654   -0.208928
     22          1           0       -1.074783    1.710365   -0.084925
     23          1           0        0.435579   -1.713848   -0.133344
     24          1           0        0.972746    2.556284    0.052118
     25          1           0        3.417475    2.245804    0.074671
     26          6           0        4.799443   -0.068672    0.009271
     27          1           0        2.856612   -2.015885   -0.107007
     28          8           0        5.534617    0.916641    0.059527
     29          6           0        5.384496   -1.454540   -0.035111
     30          1           0        5.065837   -1.973166   -0.945473
     31          1           0        6.473057   -1.389190   -0.013215
     32          1           0        5.033951   -2.043700    0.818734
 ---------------------------------------------------------------------

 SCF Done:  E(RM062X) =  -726.631642922     A.U. after    1 cycles

 The electronic state is 1-A.
 Alpha  occ. eigenvalues --  -19.64708 -19.62523 -14.80679 -14.78834 -10.69585
 Alpha  occ. eigenvalues --  -10.65209 -10.61822 -10.57716 -10.56714 -10.56528
 Alpha  occ. eigenvalues --  -10.56109 -10.55991 -10.55614 -10.54196 -10.54053
 Alpha  occ. eigenvalues --  -10.52966  -1.18531  -1.17193  -1.06633  -1.03306
 Alpha  occ. eigenvalues --   -0.96484  -0.88698  -0.86777  -0.85453  -0.82676
 Alpha  occ. eigenvalues --   -0.77986  -0.72813  -0.71432  -0.68536  -0.67051
 Alpha  occ. eigenvalues --   -0.63918  -0.63196  -0.61527  -0.56850  -0.55922
 Alpha  occ. eigenvalues --   -0.54311  -0.53684  -0.52377  -0.51832  -0.51604
 Alpha  occ. eigenvalues --   -0.51359  -0.49636  -0.48905  -0.46981  -0.46617
 Alpha  occ. eigenvalues --   -0.46520  -0.44794  -0.44161  -0.43074  -0.42008
 Alpha  occ. eigenvalues --   -0.41108  -0.39932  -0.39334  -0.38194  -0.35985
 Alpha  occ. eigenvalues --   -0.33685  -0.32885  -0.31870  -0.27600
 Alpha virt. eigenvalues --   -0.03007   0.01384   0.01637   0.02798   0.03605
 Alpha virt. eigenvalues --    0.04057   0.04353   0.04397   0.05086   0.05626
 Alpha virt. eigenvalues --    0.06086   0.06184   0.06244   0.07255   0.07660

 Mulliken charges:
               1
     1  C   -0.745890
     2  C   -0.380408
     3  C   -0.172653
     4  N   -0.673924
     5  C    0.951543
     6  O   -0.759649
     7  N   -0.643556
     8  C   -0.002175
     9  C    0.268851
    10  C   -1.412363
    11  C    0.346956
    12  C    0.375723
    13  C   -0.782725
    14  H    0.223752
    15  H    0.222098
    16  H    0.222609
    17  H    0.235247
    18  H    0.233401
    19  H    0.235178
    20  H    0.239174
    21  H    0.481316
    22  H    0.495620
    23  H    0.273121
    24  H    0.258748
    25  H    0.263177
    26  C    0.709132
    27  H    0.256464
    28  O   -0.582193
    29  C   -0.934263
    30  H    0.271254
    31  H    0.254180
    32  H    0.272254
 Sum of Mulliken charges =  -0.00000

 Dipole moment (field-independent basis, Debye):
    X=             -7.3037    Y=              2.9256    Z=             -1.0884  Tot=              7.9428
 Quadrupole moment (field-independent basis, Debye-Ang):
   XX=           -104.7230   YY=            -89.3879   ZZ=            -99.3791
   XY=            -31.2173   XZ=              1.1233   YZ=              0.3307

  Exact polarizability: 335.291   4.833 234.829   1.376   0.994 145.375
 Approx polarizability: 250.385   3.501 202.462   1.279   0.805 127.153

                      1                      2                      3
                      A                      A                      A
 Frequencies --     20.4510                30.4130                49.8803
 Red. masses --      4.9188                 2.2948                 3.9408
 Frc consts  --      0.0012                 0.0013                 0.0058
 IR Inten    --      0.2257                 7.3566                18.3868

                      4                      5                      6
                      A                      A                      A
 Frequencies --     55.6306                64.1906                71.7727
 Red. masses --      3.7871                 3.9853                 3.7344
 Frc consts  --      0.0069                 0.0097                 0.0113
 IR Inten    --     18.6738                 4.1147                14.5713

                      7                      8                      9
                      A                      A                      A
 Frequencies --    117.3609               144.8895               157.4465
 Red. masses --      5.8912                 3.4661                 3.4242
 Frc consts  --      0.0478                 0.0429                 0.0500
 IR Inten    --      1.2070                30.5985                10.3662

                     10                     11                     12
                      A                      A                      A
 Frequencies --    162.9111               218.3321               236.4646
 Red. masses --      1.0349                 6.6898                 3.6926
 Frc consts  --      0.0162                 0.1879                 0.1217
 IR Inten    --      0.0380                 0.4455                 1.4291

                     13                     14                     15
                      A                      A                      A
 Frequencies --    243.7995               286.5297               340.1731
 Red. masses --      1.1336                 5.4184                 3.0706
 Frc consts  --      0.0397                 0.2621                 0.2093
 IR Inten    --      0.4509                 1.4525                17.8139

                     16                     17                     18
                      A                      A                      A
 Frequencies --    346.5171               359.0813               396.9698
 Red. masses --      3.4677                 1.3741                 5.5087
 Frc consts  --      0.2453                 0.1044                 0.5115
 IR Inten    --     36.3813                78.7875                13.6996

                     19                     20                     21
                      A                      A                      A
 Frequencies --    418.7861               457.2291               507.0840
 Red. masses --      2.9692                 3.4290                 2.8140
 Frc consts  --      0.3068                 0.4224                 0.4263
 IR Inten    --      0.3467                 4.5670                33.5948

                     22                     23                     24
                      A                      A                      A
 Frequencies --    516.2824               557.3294               603.8370
 Red. masses --      4.8561                 1.1743                 2.2638
 Frc consts  --      0.7626                 0.2149                 0.4863
 IR Inten    --     21.6131               225.6243                32.6753

                     25                     26                     27
                      A                      A                      A
 Frequencies --    606.2876               641.2387               734.9491
 Red. masses --      4.3920                 7.0016                 4.9023
 Frc consts  --      0.9512                 1.6962                 1.5601
 IR Inten    --     36.8943                 2.3497                18.9277

                     28                     29                     30
                      A                      A                      A
 Frequencies --    739.2303               759.6005               770.5232
 Red. masses --      3.7346                 1.5503                 2.4405
 Frc consts  --      1.2024                 0.5270                 0.8537
 IR Inten    --      0.6975                20.8108                 4.5188

                     31                     32                     33
                      A                      A                      A
 Frequencies --    788.9719               853.3409               861.9438
 Red. masses --      6.5107                 1.2678                 1.6563
 Frc consts  --      2.3878                 0.5439                 0.7250
 IR Inten    --      6.5264                 7.6107               128.5068

                     34                     35                     36
                      A                      A                      A
 Frequencies --    876.5291               910.1012               934.3638
 Red. masses --      4.9888                 1.1524                 1.6710
 Frc consts  --      2.2583                 0.5624                 0.8595
 IR Inten    --      5.9923                 3.2068                 6.0431

                     37                     38                     39
                      A                      A                      A
 Frequencies --    984.0823               993.3970              1011.6850
 Red. masses --      2.0440                 1.3197                 1.3529
 Frc consts  --      1.1663                 0.7673                 0.8158
 IR Inten    --     88.7665                 0.2295                 0.0768

                     40                     41                     42
                      A                      A                      A
 Frequencies --   1028.2187              1050.7557              1051.2577
 Red. masses --      2.9527                 1.8933                 4.0721
 Frc consts  --      1.8393                 1.2316                 2.6514
 IR Inten    --      1.0570                 5.8843                 9.1957

                     43                     44                     45
                      A                      A                      A
 Frequencies --   1084.5366              1110.4357              1144.9540
 Red. masses --      2.5845                 2.3142                 2.0742
 Frc consts  --      1.7911                 1.6813                 1.6020
 IR Inten    --      3.5682                15.2614                14.7189

                     46                     47                     48
                      A                      A                      A
 Frequencies --   1166.3444              1175.3794              1182.7680
 Red. masses --      1.6947                 2.5227                 1.6911
 Frc consts  --      1.3583                 2.0534                 1.3939
 IR Inten    --      4.8729                 4.0285                 4.8113

                     49                     50                     51
                      A                      A                      A
 Frequencies --   1201.3062              1267.4810              1284.0676
 Red. masses --      1.1879                 1.6287                 1.2144
 Frc consts  --      1.0100                 1.5416                 1.1797
 IR Inten    --    430.4708               707.0077                56.3521

                     52                     53                     54
                      A                      A                      A
 Frequencies --   1306.0394              1314.0256              1330.7750
 Red. masses --      2.2595                 2.6605                 1.0755
 Frc consts  --      2.2708                 2.7066                 1.1222
 IR Inten    --     11.8599               567.4065                 1.5027

                     55                     56                     57
                      A                      A                      A
 Frequencies --   1344.6456              1351.4051              1376.5020
 Red. masses --      1.4952                 1.4953                 4.5674
 Frc consts  --      1.5928                 1.6089                 5.0989
 IR Inten    --     95.9557                44.1155               310.8747

                     58                     59                     60
                      A                      A                      A
 Frequencies --   1406.8514              1421.9389              1432.5290
 Red. masses --      1.4886                 1.2763                 1.6497
 Frc consts  --      1.7359                 1.5204                 1.9946
 IR Inten    --    172.7399                 7.4872                27.6315

                     61                     62                     63
                      A                      A                      A
 Frequencies --   1458.8407              1467.3792              1473.8969
 Red. masses --      3.1659                 1.0635                 1.0451
 Frc consts  --      3.9698                 1.3492                 1.3376
 IR Inten    --     58.8766                49.7738                18.6369

                     64                     65                     66
                      A                      A                      A
 Frequencies --   1491.8049              1504.2155              1512.4716
 Red. masses --      1.0574                 1.0393                 1.0876
 Frc consts  --      1.3865                 1.3856                 1.4659
 IR Inten    --     12.3308                11.8263                17.0947

                     67                     68                     69
                      A                      A                      A
 Frequencies --   1533.0692              1554.9419              1571.8133
 Red. masses --      1.0917                 2.0391                 3.0260
 Frc consts  --      1.5118                 2.9048                 4.4047
 IR Inten    --     63.0759               806.0356               340.6178

                     70                     71                     72
                      A                      A                      A
 Frequencies --   1576.4251              1661.6035              1680.0934
 Red. masses --      2.4575                 5.6474                 4.3726
 Frc consts  --      3.5982                 9.1865                 7.2721
 IR Inten    --   1373.0580               207.8246               157.4797

                     73                     74                     75
                      A                      A                      A
 Frequencies --   1708.3025              1733.6376              3074.5814
 Red. masses --      3.9729                10.1644                 1.0603
 Frc consts  --      6.8311                17.9990                 5.9054
 IR Inten    --    811.1795               548.4524                 7.9661

                     76                     77                     78
                      A                      A                      A
 Frequencies --   3077.6994              3081.4574              3093.4199
 Red. masses --      1.0375                 1.0597                 1.0370
 Frc consts  --      5.7899                 5.9283                 5.8466
 IR Inten    --     21.9249               108.8992                 0.1169

                     79                     80                     81
                      A                      A                      A
 Frequencies --   3109.5972              3129.3647              3148.1027
 Red. masses --      1.1017                 1.1062                 1.1041
 Frc consts  --      6.2763                 6.3825                 6.4468
 IR Inten    --      3.4079                47.6032                97.9813

                     82                     83                     84
                      A                      A                      A
 Frequencies --   3157.8544              3164.1059              3202.4514
 Red. masses --      1.1022                 1.1006                 1.1045
 Frc consts  --      6.4759                 6.4923                 6.6737
 IR Inten    --     47.0939                 1.4118                18.4132

                     85                     86                     87
                      A                      A                      A
 Frequencies --   3223.7903              3244.7816              3247.7400
 Red. masses --      1.0910                 1.0913                 1.0938
 Frc consts  --      6.6806                 6.7699                 6.7978
 IR Inten    --      7.5349                 3.0562                 2.4926

                     88                     89                     90
                      A                      A                      A
 Frequencies --   3304.3066              3598.6247              3616.9183
 Red. masses --      1.0930                 1.0786                 1.0796
 Frc consts  --      7.0315                 8.2297                 8.3210
 IR Inten    --      3.7338                56.3197               236.1047

 - Thermochemistry -
 -------------------
 Temperature   298.150 Kelvin.  Pressure   1.00000 Atm.
 Atom     1 has atomic number  6 and mass  12.00000

 Molecular mass:   220.12118 amu.
 Principal axes and moments of inertia in atomic units:
                           1         2         3
     Eigenvalues --   744.14786********************
           X            0.99997  -0.00807   0.00018
           Y            0.00806   0.99996   0.00250
           Z           -0.00020  -0.00250   1.00000
 This molecule is an asymmetric top.
 Rotational symmetry number  1.
 Warning -- assumption of classical behavior for rotation
           may cause significant error
 Rotational temperatures (Kelvin)      0.11639     0.00750     0.00708
 Rotational constants (GHZ):           2.42525     0.15629     0.14745
 Zero-point vibrational energy     707382.5 (Joules/Mol)
                                  169.06847 (Kcal/Mol)
 Warning -- explicit consideration of  25 degrees of freedom as
           vibrations may cause significant error
 Vibrational temperatures:     29.42    43.76    71.77    80.04    92.36
          (Kelvin)            103.26   168.86   208.46   226.53   234.39
                              314.13   340.22   350.77   412.25   489.43
                              498.56   516.64   571.15   602.54   657.85
                              729.58   742.81   801.87   868.79   872.31
                              922.60  1057.43  1063.59  1092.89  1108.61
                             1135.15  1227.77  1240.14  1261.13  1309.43
                             1344.34  1415.87  1429.27  1455.59  1479.38
                             1511.80  1512.52  1560.40  1597.67  1647.33
                             1678.11  1691.11  1701.74  1728.41  1823.62
                             1847.48  1879.10  1890.59  1914.69  1934.64
                             1944.37  1980.48  2024.14  2045.85  2061.09
                             2098.94  2111.23  2120.61  2146.37  2164.23
                             2176.11  2205.74  2237.21  2261.49  2268.12
                             2390.67  2417.28  2457.86  2494.31  4423.63
                             4428.12  4433.52  4450.74  4474.01  4502.45
                             4529.41  4543.44  4552.44  4607.61  4638.31
                             4668.51  4672.77  4754.15  5177.61  5203.93

 Zero-point correction=                           0.269428 (Hartree/Particle)
 Thermal correction to Energy=                    0.286136
 Thermal correction to Enthalpy=                  0.287080
 Thermal correction to Gibbs Free Energy=         0.222543
 Sum of electronic and zero-point Energies=           -726.362215
 Sum of electronic and thermal Energies=              -726.345507
 Sum of electronic and thermal Enthalpies=            -726.344563
 Sum of electronic and thermal Free Energies=         -726.409100

                     E (Thermal)             CV                S
                      KCal/Mol        Cal/Mol-Kelvin    Cal/Mol-Kelvin
 Total                  179.553             60.359            135.829
 Electronic               0.000              0.000              0.000
 Translational            0.889              2.981             42.070
 Rotational               0.889              2.981             33.019
 Vibrational            177.775             54.398             60.739
 Vibration     1          0.593              1.986              6.590
 Vibration     2          0.594              1.984              5.802
 Vibration     3          0.595              1.978              4.822
 Vibration     4          0.596              1.975              4.606
 Vibration     5          0.597              1.971              4.324
 Vibration     6          0.598              1.967              4.104
 Vibration     7          0.608              1.935              3.143
 Vibration     8          0.616              1.908              2.738
 Vibration     9          0.621              1.894              2.580
 Vibration    10          0.623              1.888              2.516
 Vibration    11          0.646              1.813              1.973
 Vibration    12          0.655              1.785              1.829
 Vibration    13          0.659              1.773              1.775
 Vibration    14          0.684              1.699              1.494
 Vibration    15          0.720              1.595              1.211
 Vibration    16          0.725              1.582              1.182
 Vibration    17          0.734              1.557              1.126
 Vibration    18          0.763              1.477              0.974
 Vibration    19          0.782              1.429              0.896
 Vibration    20          0.815              1.345              0.774
 Vibration    21          0.862              1.234              0.641
 Vibration    22          0.871              1.214              0.619
 Vibration    23          0.913              1.124              0.529
 Vibration    24          0.962              1.024              0.443
 Vibration    25          0.965              1.018              0.439

 Optimization completed.
    -- Stationary point found.
 Normal termination of Gaussian 09 at Mon Feb  4 12:31:49 2019.
