 Gaussian 09, Revision E.01,

 ----------------------------------------------------------------------
 # M062X/Gen 6D SCF=Tight INT(grid=ultrafine) OPT=calcfc IOP(2/17=4) SC
 RF=(SMD,Solvent=h2o) maxdisk=2147483648
 ----------------------------------------------------------------------

 ----------------------------------
 4Ketone_a1.M062X_6-31pGd_opt_water
 ----------------------------------
 Symbolic Z-matrix:
 Charge = -1 Multiplicity = 1

 SCF Done:  E(RM062X) =  -726.129492264     A.U. after   16 cycles
 SCF Done:  E(RM062X) =  -726.148372589     A.U. after   17 cycles
 SCF Done:  E(RM062X) =  -726.128375622     A.U. after   16 cycles
 SCF Done:  E(RM062X) =  -726.148882334     A.U. after   13 cycles
 SCF Done:  E(RM062X) =  -726.148928594     A.U. after   14 cycles
 SCF Done:  E(RM062X) =  -726.150196846     A.U. after   16 cycles
 SCF Done:  E(RM062X) =  -726.149544896     A.U. after   13 cycles
 SCF Done:  E(RM062X) =  -726.150196867     A.U. after    6 cycles
 SCF Done:  E(RM062X) =  -726.150755791     A.U. after   14 cycles
 SCF Done:  E(RM062X) =  -726.151029327     A.U. after   15 cycles
 SCF Done:  E(RM062X) =  -726.151579214     A.U. after   13 cycles
 SCF Done:  E(RM062X) =  -726.151583249     A.U. after   12 cycles
 SCF Done:  E(RM062X) =  -726.151586019     A.U. after   11 cycles
 SCF Done:  E(RM062X) =  -726.151586706     A.U. after   11 cycles
 SCF Done:  E(RM062X) =  -726.151587406     A.U. after   11 cycles
 SCF Done:  E(RM062X) =  -726.151588030     A.U. after   11 cycles
 SCF Done:  E(RM062X) =  -726.151588386     A.U. after   11 cycles
 SCF Done:  E(RM062X) =  -726.151588486     A.U. after    9 cycles
 Optimization completed.
    -- Stationary point found.
 Normal termination of Gaussian 09 at Mon Feb  4 11:59:35 2019.
 Gaussian 09:  ES64L-G09RevE.01 30-Nov-2015

 ----------------------------------------------------------------------
 # M062X/Gen 6D SCF=Tight INT(grid=ultrafine) OPT IOP(2/17=4) SCRF=(SMD
 ,Solvent=h2o) Freq=Noraman maxdisk=2147483648 geom=check guess=read IO
 P(2/17=4)
 ----------------------------------------------------------------------

 ----------------------------------
 4Ketone_a1.M062X_6-31pGd_opt_water
 ----------------------------------
 Structure from the checkpoint file:  "4Ketone_a1.M062X_6-31pGd_opt_water.chk"
 Charge = -1 Multiplicity = 1

 SCF Done:  E(RM062X) =  -726.151588486     A.U. after    1 cycles
 Optimization completed.
    -- Stationary point found.
 Normal termination of Gaussian 09 at Mon Feb  4 12:00:27 2019.

 ----------------------------------------------------------------------
 #N Geom=AllCheck Guess=TCheck SCRF=Check Test GenChk RM062X/ChkBas Fre
 q
 ----------------------------------------------------------------------

 Structure from the checkpoint file:  "4Ketone_a1.M062X_6-31pGd_opt_water.chk"
 ----------------------------------
 4Ketone_a1.M062X_6-31pGd_opt_water
 ----------------------------------
 Charge = -1 Multiplicity = 1

                         Standard orientation:
 ---------------------------------------------------------------------
 Center     Atomic      Atomic             Coordinates (Angstroms)
 Number     Number       Type             X           Y           Z
 ---------------------------------------------------------------------
      1          6           0       -6.735603   -0.541464   -0.325264
      2          6           0       -5.525351    0.386560   -0.288973
      3          6           0       -4.252655   -0.370814    0.062085
      4          7           0       -3.107935    0.527683    0.073254
      5          6           0       -1.832968    0.044073    0.302664
      6          8           0       -1.717178   -1.101933    0.823095
      7          7           0       -0.857275    0.925850    0.004269
      8          6           0        0.459659    0.562676    0.020073
      9          6           0        0.985396   -0.755027   -0.102381
     10          6           0        1.417097    1.616162    0.089098
     11          6           0        2.774982    1.378513    0.058026
     12          6           0        3.281495    0.068095   -0.054714
     13          6           0        2.351728   -0.983042   -0.140907
     14          1           0       -7.648031    0.008677   -0.574736
     15          1           0       -6.888332   -1.023496    0.646919
     16          1           0       -6.602872   -1.330212   -1.074235
     17          1           0       -5.685424    1.183901    0.447063
     18          1           0       -5.398657    0.871989   -1.265448
     19          1           0       -4.101726   -1.190875   -0.656242
     20          1           0       -4.357671   -0.828003    1.051702
     21          1           0       -3.154377    1.313606   -0.565536
     22          1           0        0.307849   -1.594653   -0.184861
     23          1           0        1.045586    2.634425    0.170866
     24          1           0        3.469106    2.212387    0.121514
     25          6           0        4.731663   -0.164047   -0.090754
     26          1           0        2.699536   -2.007477   -0.246094
     27          8           0        5.535162    0.775404   -0.030441
     28          6           0        5.246808   -1.577717   -0.204655
     29          1           0        4.880627   -2.047040   -1.123630
     30          1           0        6.337775   -1.565349   -0.213543
     31          1           0        4.895693   -2.184193    0.636571
 ---------------------------------------------------------------------

 SCF Done:  E(RM062X) =  -726.151588486     A.U. after    1 cycles

 The electronic state is 1-A.
 Alpha  occ. eigenvalues --  -19.63619 -19.59649 -14.75789 -14.71362 -10.65074
 Alpha  occ. eigenvalues --  -10.64205 -10.58652 -10.56472 -10.55483 -10.55217
 Alpha  occ. eigenvalues --  -10.54450 -10.53801 -10.53663 -10.53643 -10.53641
 Alpha  occ. eigenvalues --  -10.52711  -1.15892  -1.14038  -1.01039  -0.99000
 Alpha  occ. eigenvalues --   -0.93749  -0.87219  -0.85208  -0.83526  -0.80924
 Alpha  occ. eigenvalues --   -0.76177  -0.70549  -0.68203  -0.67055  -0.63789
 Alpha  occ. eigenvalues --   -0.62401  -0.58673  -0.55632  -0.54303  -0.54057
 Alpha  occ. eigenvalues --   -0.52184  -0.50960  -0.50857  -0.49802  -0.49435
 Alpha  occ. eigenvalues --   -0.48028  -0.47848  -0.46172  -0.45285  -0.44851
 Alpha  occ. eigenvalues --   -0.43508  -0.43154  -0.42014  -0.41328  -0.39459
 Alpha  occ. eigenvalues --   -0.39003  -0.38668  -0.35760  -0.34130  -0.32863
 Alpha  occ. eigenvalues --   -0.31172  -0.30690  -0.29491  -0.23463
 Alpha virt. eigenvalues --   -0.02065   0.02284   0.02802   0.03261   0.04062
 Alpha virt. eigenvalues --    0.04266   0.04531   0.04651   0.05428   0.05996
 Alpha virt. eigenvalues --    0.06372   0.06535   0.07100   0.07779   0.07907

 Mulliken charges:
               1
     1  C   -0.740806
     2  C   -0.371234
     3  C   -0.208672
     4  N   -0.627162
     5  C    0.754420
     6  O   -0.840372
     7  N   -0.621074
     8  C    0.081528
     9  C   -0.144794
    10  C   -0.855267
    11  C    0.276767
    12  C    0.235259
    13  C   -0.865337
    14  H    0.220606
    15  H    0.219839
    16  H    0.220042
    17  H    0.228505
    18  H    0.223645
    19  H    0.210313
    20  H    0.224143
    21  H    0.435828
    22  H    0.238827
    23  H    0.230121
    24  H    0.247148
    25  C    0.782632
    26  H    0.241709
    27  O   -0.624543
    28  C   -0.954599
    29  H    0.266254
    30  H    0.248920
    31  H    0.267352
 Sum of Mulliken charges =  -1.00000

 Dipole moment (field-independent basis, Debye):
    X=             -4.5931    Y=             -2.5532    Z=             -3.4804  Tot=              6.3030
 Quadrupole moment (field-independent basis, Debye-Ang):
   XX=           -135.7747   YY=           -102.0841   ZZ=           -103.5758
   XY=            -23.1022   XZ=              6.5015   YZ=              3.1913

  Exact polarizability: 428.026   2.374 243.226  -6.024  -1.588 160.273
 Approx polarizability: 300.887   1.486 204.394  -2.875  -1.315 137.917

                      1                      2                      3
                      A                      A                      A
 Frequencies --     27.0228                30.2634                58.7691
 Red. masses --      4.2339                 5.1876                 2.1894
 Frc consts  --      0.0018                 0.0028                 0.0045
 IR Inten    --     11.4085                 0.9039                 5.9406

                      4                      5                      6
                      A                      A                      A
 Frequencies --     69.2903                75.1375                92.5934
 Red. masses --      4.8977                 3.0111                 4.0726
 Frc consts  --      0.0139                 0.0100                 0.0206
 IR Inten    --      9.1668                 6.3742                11.2188

                      7                      8                      9
                      A                      A                      A
 Frequencies --    122.8312               148.2252               161.9107
 Red. masses --      5.8456                 3.6019                 1.0801
 Frc consts  --      0.0520                 0.0466                 0.0167
 IR Inten    --     38.1651                42.2847                 2.4447

                     10                     11                     12
                      A                      A                      A
 Frequencies --    172.1806               215.2415               240.2320
 Red. masses --      3.0505                 6.5408                 2.1380
 Frc consts  --      0.0533                 0.1785                 0.0727
 IR Inten    --     18.2314                 7.9814                 4.7047

                     13                     14                     15
                      A                      A                      A
 Frequencies --    247.2497               281.1867               347.0950
 Red. masses --      1.4864                 5.3596                 3.6003
 Frc consts  --      0.0535                 0.2497                 0.2556
 IR Inten    --      1.7585                17.6896                25.3141

                     16                     17                     18
                      A                      A                      A
 Frequencies --    362.9341               403.5318               424.8933
 Red. masses --      4.8563                 5.6336                 3.0436
 Frc consts  --      0.3769                 0.5405                 0.3237
 IR Inten    --     35.6468               110.1602                 1.1121

                     19                     20                     21
                      A                      A                      A
 Frequencies --    445.3084               478.0852               512.1025
 Red. masses --      2.1330                 1.8758                 2.7886
 Frc consts  --      0.2492                 0.2526                 0.4309
 IR Inten    --     80.4053               198.3476                47.4543

                     22                     23                     24
                      A                      A                      A
 Frequencies --    528.3383               605.4792               608.3453
 Red. masses --      3.6045                 2.2546                 4.3543
 Frc consts  --      0.5928                 0.4870                 0.9494
 IR Inten    --    115.7487                31.6332                32.6565

                     25                     26                     27
                      A                      A                      A
 Frequencies --    637.0590               732.1568               740.1699
 Red. masses --      7.0373                 4.6703                 4.0431
 Frc consts  --      1.6827                 1.4751                 1.3050
 IR Inten    --      5.7020                12.4638                 2.7727

                     28                     29                     30
                      A                      A                      A
 Frequencies --    760.6499               775.8588               800.4121
 Red. masses --      1.1121                 4.7183                 7.7051
 Frc consts  --      0.3791                 1.6734                 2.9084
 IR Inten    --     12.5098                90.3278                57.6646

                     31                     32                     33
                      A                      A                      A
 Frequencies --    837.0801               856.2722               875.6932
 Red. masses --      1.3117                 2.3498                 3.5478
 Frc consts  --      0.5415                 1.0151                 1.6029
 IR Inten    --     45.3097               106.3639                40.8645

                     34                     35                     36
                      A                      A                      A
 Frequencies --    908.1083               934.4465               980.4097
 Red. masses --      1.1667                 1.6572                 2.0431
 Frc consts  --      0.5669                 0.8526                 1.1571
 IR Inten    --      7.7969                 5.6610               216.3677

                     37                     38                     39
                      A                      A                      A
 Frequencies --    988.9742              1006.0947              1010.7128
 Red. masses --      1.3014                 1.3479                 2.7643
 Frc consts  --      0.7500                 0.8039                 1.6638
 IR Inten    --      2.4770                 2.3316               151.6036

                     40                     41                     42
                      A                      A                      A
 Frequencies --   1031.6586              1048.8026              1080.5505
 Red. masses --      5.1225                 1.8609                 2.5481
 Frc consts  --      3.2122                 1.2060                 1.7529
 IR Inten    --    142.0360                 6.2455                92.6783

                     43                     44                     45
                      A                      A                      A
 Frequencies --   1106.3412              1137.5379              1143.4747
 Red. masses --      2.3166                 1.8354                 1.3771
 Frc consts  --      1.6706                 1.3993                 1.0609
 IR Inten    --    145.8120               143.9917               128.7205

                     46                     47                     48
                      A                      A                      A
 Frequencies --   1169.4499              1178.1252              1194.9718
 Red. masses --      1.8590                 1.5848                 1.9085
 Frc consts  --      1.4979                 1.2960                 1.6057
 IR Inten    --     14.6042               795.4157               159.8922

                     49                     50                     51
                      A                      A                      A
 Frequencies --   1259.6909              1278.1460              1317.0243
 Red. masses --      1.7443                 1.3740                 2.4091
 Frc consts  --      1.6308                 1.3225                 2.4620
 IR Inten    --   1143.0976               967.1639              1262.1468

                     52                     53                     54
                      A                      A                      A
 Frequencies --   1320.2506              1325.1479              1341.6530
 Red. masses --      1.6430                 1.1379                 1.6573
 Frc consts  --      1.6874                 1.1773                 1.7576
 IR Inten    --      1.7877                10.8486               103.8463

                     55                     56                     57
                      A                      A                      A
 Frequencies --   1344.3151              1391.0397              1408.5904
 Red. masses --      2.7041                 2.5375                 1.5013
 Frc consts  --      2.8792                 2.8929                 1.7550
 IR Inten    --    229.7447              1540.7260               138.4284

                     58                     59                     60
                      A                      A                      A
 Frequencies --   1423.3318              1436.5151              1471.0404
 Red. masses --      1.3220                 1.9674                 1.1088
 Frc consts  --      1.5780                 2.3921                 1.4137
 IR Inten    --    101.3489               656.3584               182.4348

                     61                     62                     63
                      A                      A                      A
 Frequencies --   1474.9216              1477.4633              1490.0469
 Red. masses --      3.1072                 1.0456                 1.2223
 Frc consts  --      3.9825                 1.3448                 1.5990
 IR Inten    --    713.9245                17.9924                44.1982

                     64                     65                     66
                      A                      A                      A
 Frequencies --   1495.8012              1505.4302              1514.8845
 Red. masses --      1.8627                 1.0409                 1.1550
 Frc consts  --      2.4554                 1.3899                 1.5617
 IR Inten    --    272.6310                12.1547               126.6036

                     67                     68                     69
                      A                      A                      A
 Frequencies --   1530.4721              1537.8642              1567.3969
 Red. masses --      1.4443                 2.1931                 3.4356
 Frc consts  --      1.9932                 3.0559                 4.9729
 IR Inten    --    807.3783               912.6889               181.3209

                     70                     71                     72
                      A                      A                      A
 Frequencies --   1600.2622              1656.7956              1701.3561
 Red. masses --      6.5723                 6.7674                 8.4593
 Frc consts  --      9.9163                10.9448                14.4270
 IR Inten    --    164.0974               643.3898               335.0099

                     73                     74                     75
                      A                      A                      A
 Frequencies --   3039.2465              3068.8799              3075.1631
 Red. masses --      1.0694                 1.0611                 1.0364
 Frc consts  --      5.8202                 5.8882                 5.7742
 IR Inten    --     94.6625                54.0076                44.2470

                     76                     77                     78
                      A                      A                      A
 Frequencies --   3093.1196              3101.5371              3117.9884
 Red. masses --      1.0370                 1.0955                 1.1006
 Frc consts  --      5.8456                 6.2091                 6.3040
 IR Inten    --      0.1138                13.4864                74.3624

                     79                     80                     81
                      A                      A                      A
 Frequencies --   3144.1471              3153.3112              3163.5142
 Red. masses --      1.1036                 1.1022                 1.1008
 Frc consts  --      6.4278                 6.4574                 6.4911
 IR Inten    --     95.1965                52.5680                 3.0312

                     82                     83                     84
                      A                      A                      A
 Frequencies --   3198.5932              3217.9317              3228.9757
 Red. masses --      1.1043                 1.0884                 1.0901
 Frc consts  --      6.6564                 6.6401                 6.6962
 IR Inten    --     26.5145                16.4729                10.2880

                     85                     86                     87
                      A                      A                      A
 Frequencies --   3235.1428              3276.0559              3612.6593
 Red. masses --      1.0944                 1.0921                 1.0775
 Frc consts  --      6.7488                 6.9060                 8.2856
 IR Inten    --     14.1703                 2.6083                86.9637

 - Thermochemistry -
 -------------------
 Temperature   298.150 Kelvin.  Pressure   1.00000 Atm.
 Atom     1 has atomic number  6 and mass  12.00000

 Molecular mass:   219.11335 amu.
 Principal axes and moments of inertia in atomic units:
                           1         2         3
     Eigenvalues --   786.19497********************
           X            0.99998  -0.00571   0.00236
           Y            0.00568   0.99991   0.01213
           Z           -0.00243  -0.01212   0.99992
 This molecule is an asymmetric top.
 Rotational symmetry number  1.
 Warning -- assumption of classical behavior for rotation
           may cause significant error
 Rotational temperatures (Kelvin)      0.11017     0.00766     0.00726
 Rotational constants (GHZ):           2.29554     0.15966     0.15132
 Zero-point vibrational energy     671039.0 (Joules/Mol)
                                  160.38217 (Kcal/Mol)
 Warning -- explicit consideration of  24 degrees of freedom as
           vibrations may cause significant error
 Vibrational temperatures:     38.88    43.54    84.56    99.69   108.11
          (Kelvin)            133.22   176.73   213.26   232.95   247.73
                              309.68   345.64   355.74   404.56   499.39
                              522.18   580.59   611.33   640.70   687.86
                              736.80   760.16   871.15   875.27   916.58
                             1053.41  1064.94  1094.40  1116.29  1151.61
                             1204.37  1231.98  1259.93  1306.56  1344.46
                             1410.59  1422.91  1447.54  1454.19  1484.32
                             1508.99  1554.67  1591.78  1636.66  1645.20
                             1682.58  1695.06  1719.30  1812.41  1838.96
                             1894.90  1899.54  1906.59  1930.34  1934.17
                             2001.39  2026.64  2047.85  2066.82  2116.50
                             2122.08  2125.74  2143.84  2152.12  2165.98
                             2179.58  2202.01  2212.64  2255.13  2302.42
                             2383.76  2447.87  4372.79  4415.43  4424.47
                             4450.30  4462.41  4486.08  4523.72  4536.91
                             4551.59  4602.06  4629.88  4645.77  4654.64
                             4713.51  5197.80

 Zero-point correction=                           0.255585 (Hartree/Particle)
 Thermal correction to Energy=                    0.271809
 Thermal correction to Enthalpy=                  0.272753
 Thermal correction to Gibbs Free Energy=         0.209860
 Sum of electronic and zero-point Energies=           -725.896003
 Sum of electronic and thermal Energies=              -725.879779
 Sum of electronic and thermal Enthalpies=            -725.878835
 Sum of electronic and thermal Free Energies=         -725.941728

                     E (Thermal)             CV                S
                      KCal/Mol        Cal/Mol-Kelvin    Cal/Mol-Kelvin
 Total                  170.563             58.943            132.370
 Electronic               0.000              0.000              0.000
 Translational            0.889              2.981             42.056
 Rotational               0.889              2.981             33.027
 Vibrational            168.785             52.982             57.286
 Vibration     1          0.593              1.984              6.037
 Vibration     2          0.594              1.984              5.812
 Vibration     3          0.596              1.974              4.498
 Vibration     4          0.598              1.969              4.173
 Vibration     5          0.599              1.966              4.014
 Vibration     6          0.602              1.954              3.605
 Vibration     7          0.610              1.930              3.055
 Vibration     8          0.618              1.905              2.695
 Vibration     9          0.622              1.889              2.527
 Vibration    10          0.626              1.877              2.412
 Vibration    11          0.645              1.818              1.999
 Vibration    12          0.657              1.779              1.801
 Vibration    13          0.661              1.767              1.750
 Vibration    14          0.681              1.708              1.526
 Vibration    15          0.725              1.581              1.179
 Vibration    16          0.737              1.549              1.110
 Vibration    17          0.769              1.463              0.950
 Vibration    18          0.787              1.416              0.876
 Vibration    19          0.805              1.371              0.810
 Vibration    20          0.835              1.299              0.715
 Vibration    21          0.867              1.223              0.629
 Vibration    22          0.883              1.187              0.591
 Vibration    23          0.964              1.020              0.440
 Vibration    24          0.967              1.014              0.436

 Optimization completed.
    -- Stationary point found.
 Normal termination of Gaussian 09 at Mon Feb  4 12:37:04 2019.
