 Gaussian 09, Revision E.01,

 ----------------------------------------------------------------------
 # M062X/Gen 6D SCF=Tight INT(grid=ultrafine) OPT=calcfc IOP(2/17=4) ma
 xdisk=2147483648
 ----------------------------------------------------------------------

 -------------------------
 4Ketone.M062X_6-31pGd_opt
 -------------------------
 Symbolic Z-matrix:
 Charge =  0 Multiplicity = 1

 SCF Done:  E(RM062X) =  -726.592474854     A.U. after   15 cycles
 SCF Done:  E(RM062X) =  -726.602163950     A.U. after   15 cycles
 SCF Done:  E(RM062X) =  -726.601530361     A.U. after   15 cycles
 SCF Done:  E(RM062X) =  -726.602476509     A.U. after   12 cycles
 SCF Done:  E(RM062X) =  -726.603605199     A.U. after   15 cycles
 SCF Done:  E(RM062X) =  -726.604394346     A.U. after   14 cycles
 SCF Done:  E(RM062X) =  -726.604679227     A.U. after   14 cycles
 SCF Done:  E(RM062X) =  -726.604704164     A.U. after   14 cycles
 SCF Done:  E(RM062X) =  -726.604772340     A.U. after   14 cycles
 SCF Done:  E(RM062X) =  -726.604767817     A.U. after   13 cycles
 SCF Done:  E(RM062X) =  -726.604779075     A.U. after   13 cycles
 SCF Done:  E(RM062X) =  -726.604779214     A.U. after   10 cycles
 SCF Done:  E(RM062X) =  -726.604779228     A.U. after    9 cycles
 Optimization completed.
    -- Stationary point found.
 Normal termination of Gaussian 09 at Mon Feb  4 11:30:16 2019.
 Gaussian 09:  ES64L-G09RevE.01 30-Nov-2015

 ----------------------------------------------------------------------
 # M062X/Gen 6D SCF=Tight INT(grid=ultrafine) OPT IOP(2/17=4) Freq=Nora
 man maxdisk=2147483648 geom=check guess=read IOP(2/17=4)
 ----------------------------------------------------------------------

 -------------------------
 4Ketone.M062X_6-31pGd_opt
 -------------------------
 Structure from the checkpoint file:  "4Ketone.M062X_6-31pGd_opt.chk"
 Charge =  0 Multiplicity = 1

 SCF Done:  E(RM062X) =  -726.604779228     A.U. after    1 cycles
 Optimization completed.
    -- Stationary point found.
 Normal termination of Gaussian 09 at Mon Feb  4 11:31:02 2019.

 ----------------------------------------------------------------------
 #N Geom=AllCheck Guess=TCheck SCRF=Check Test GenChk RM062X/ChkBas Fre
 q
 ----------------------------------------------------------------------

 Structure from the checkpoint file:  "4Ketone.M062X_6-31pGd_opt.chk"
 -------------------------
 4Ketone.M062X_6-31pGd_opt
 -------------------------
 Charge =  0 Multiplicity = 1

                         Standard orientation:
 ---------------------------------------------------------------------
 Center     Atomic      Atomic             Coordinates (Angstroms)
 Number     Number       Type             X           Y           Z
 ---------------------------------------------------------------------
      1          6           0       -6.836908   -0.379374    0.010295
      2          6           0       -5.572766    0.474518    0.078652
      3          6           0       -4.318087   -0.368136   -0.110944
      4          7           0       -3.125879    0.466837   -0.037095
      5          6           0       -1.893186   -0.142576    0.029561
      6          8           0       -1.759427   -1.346092    0.165879
      7          7           0       -0.834974    0.754094   -0.040284
      8          6           0        0.534841    0.467368   -0.017184
      9          6           0        1.059154   -0.831655   -0.047475
     10          6           0        1.413849    1.564189    0.021519
     11          6           0        2.783021    1.371545    0.028367
     12          6           0        3.319753    0.078344   -0.002506
     13          6           0        2.439921   -1.006416   -0.040605
     14          1           0       -7.733880    0.230970    0.146660
     15          1           0       -6.831468   -1.147988    0.790290
     16          1           0       -6.918631   -0.885410   -0.957560
     17          1           0       -5.513259    0.989481    1.044760
     18          1           0       -5.614311    1.252630   -0.696447
     19          1           0       -4.357917   -0.907176   -1.068500
     20          1           0       -4.238025   -1.122076    0.676782
     21          1           0       -3.183124    1.363537   -0.504404
     22          1           0       -1.067538    1.736396    0.026086
     23          1           0        0.393144   -1.682533   -0.068411
     24          1           0        1.009963    2.574336    0.044582
     25          1           0        3.463288    2.217202    0.058439
     26          6           0        4.804635   -0.082141    0.006236
     27          1           0        2.825083   -2.021862   -0.064070
     28          8           0        5.535172    0.890798    0.037542
     29          6           0        5.383589   -1.481770   -0.025087
     30          1           0        5.062210   -2.014517   -0.926369
     31          1           0        6.471436   -1.409526   -0.013437
     32          1           0        5.046138   -2.060998    0.840907
 ---------------------------------------------------------------------

 SCF Done:  E(RM062X) =  -726.604779228     A.U. after    1 cycles

 The electronic state is 1-A.
 Alpha  occ. eigenvalues --  -19.63350 -19.62387 -14.81640 -14.79830 -10.69723
 Alpha  occ. eigenvalues --  -10.64017 -10.61884 -10.59065 -10.56862 -10.56645
 Alpha  occ. eigenvalues --  -10.56456 -10.56289 -10.55947 -10.55601 -10.55006
 Alpha  occ. eigenvalues --  -10.54819  -1.19088  -1.16308  -1.07327  -1.04121
 Alpha  occ. eigenvalues --   -0.96586  -0.89891  -0.87129  -0.85554  -0.83015
 Alpha  occ. eigenvalues --   -0.79013  -0.73315  -0.71916  -0.69898  -0.67782
 Alpha  occ. eigenvalues --   -0.64241  -0.63749  -0.62026  -0.57246  -0.56228
 Alpha  occ. eigenvalues --   -0.54588  -0.53742  -0.53252  -0.52261  -0.51561
 Alpha  occ. eigenvalues --   -0.51429  -0.49717  -0.48957  -0.48663  -0.47309
 Alpha  occ. eigenvalues --   -0.46963  -0.45411  -0.44336  -0.43804  -0.42880
 Alpha  occ. eigenvalues --   -0.41868  -0.41367  -0.41172  -0.38136  -0.35764
 Alpha  occ. eigenvalues --   -0.33351  -0.32188  -0.31792  -0.27878
 Alpha virt. eigenvalues --   -0.02191  -0.00725   0.01291   0.02002   0.02317
 Alpha virt. eigenvalues --    0.03037   0.03381   0.03875   0.04592   0.05010
 Alpha virt. eigenvalues --    0.05474   0.05870   0.06191   0.06615   0.06694

 Mulliken charges:
               1
     1  C   -0.718783
     2  C   -0.306451
     3  C   -0.198139
     4  N   -0.585456
     5  C    0.825134
     6  O   -0.571634
     7  N   -0.645874
     8  C   -0.030627
     9  C    0.282733
    10  C   -1.241818
    11  C    0.207658
    12  C    0.462229
    13  C   -0.730930
    14  H    0.214649
    15  H    0.215681
    16  H    0.214122
    17  H    0.227437
    18  H    0.202076
    19  H    0.215264
    20  H    0.242793
    21  H    0.384180
    22  H    0.411039
    23  H    0.270334
    24  H    0.193542
    25  H    0.249205
    26  C    0.611645
    27  H    0.207908
    28  O   -0.438246
    29  C   -0.892935
    30  H    0.235768
    31  H    0.250471
    32  H    0.237022
 Sum of Mulliken charges =  -0.00000

 Dipole moment (field-independent basis, Debye):
    X=             -4.9590    Y=              1.4024    Z=             -0.8645  Tot=              5.2255
 Quadrupole moment (field-independent basis, Debye-Ang):
   XX=           -100.6761   YY=            -91.4674   ZZ=            -99.0730
   XY=            -19.5787   XZ=              1.9923   YZ=             -0.4848

  Exact polarizability: 251.562  -0.691 153.115   1.091   0.611  98.368
 Approx polarizability: 240.051   4.356 207.228   1.309   0.097 127.437

                      1                      2                      3
                      A                      A                      A
 Frequencies --     20.8888                31.9442                56.7279
 Red. masses --      4.5847                 2.7379                 3.5368
 Frc consts  --      0.0012                 0.0016                 0.0067
 IR Inten    --      0.0057                 6.4743                 7.2542

                      4                      5                      6
                      A                      A                      A
 Frequencies --     59.9566                69.1809                72.9323
 Red. masses --      4.2397                 4.0497                 2.7465
 Frc consts  --      0.0090                 0.0114                 0.0086
 IR Inten    --      0.6357                 2.1651                 1.4557

                      7                      8                      9
                      A                      A                      A
 Frequencies --    120.9966               141.6975               182.8718
 Red. masses --      5.2549                 4.4242                 1.0331
 Frc consts  --      0.0453                 0.0523                 0.0204
 IR Inten    --      0.4017                13.5137                 0.1358

                     10                     11                     12
                      A                      A                      A
 Frequencies --    187.5026               217.2102               230.2956
 Red. masses --      2.6004                 6.5767                 3.4811
 Frc consts  --      0.0539                 0.1828                 0.1088
 IR Inten    --      1.0786                 0.2556                 1.4270

                     13                     14                     15
                      A                      A                      A
 Frequencies --    237.1479               286.4814               332.8524
 Red. masses --      1.1452                 4.5191                 3.4444
 Frc consts  --      0.0379                 0.2185                 0.2248
 IR Inten    --      0.1268                 1.0398                11.3306

                     16                     17                     18
                      A                      A                      A
 Frequencies --    345.2586               368.5610               397.6998
 Red. masses --      4.3857                 1.6012                 4.4022
 Frc consts  --      0.3080                 0.1281                 0.4102
 IR Inten    --     31.8125                57.7100                 3.1922

                     19                     20                     21
                      A                      A                      A
 Frequencies --    420.5564               453.2122               503.3648
 Red. masses --      3.0212                 3.0615                 1.3925
 Frc consts  --      0.3148                 0.3705                 0.2079
 IR Inten    --      0.0363                 7.5223               101.3982

                     22                     23                     24
                      A                      A                      A
 Frequencies --    507.4698               524.6117               598.8626
 Red. masses --      3.0854                 3.1598                 2.2831
 Frc consts  --      0.4681                 0.5124                 0.4824
 IR Inten    --      1.0596                55.3142                20.7425

                     25                     26                     27
                      A                      A                      A
 Frequencies --    606.8892               643.4577               728.1270
 Red. masses --      4.1586                 6.9268                 4.5727
 Frc consts  --      0.9024                 1.6898                 1.4284
 IR Inten    --     13.6890                 1.1759                15.0203

                     28                     29                     30
                      A                      A                      A
 Frequencies --    737.4954               753.7348               766.5218
 Red. masses --      3.7466                 1.8323                 2.0272
 Frc consts  --      1.2006                 0.6133                 0.7018
 IR Inten    --      0.0828                10.4195                 3.4815

                     31                     32                     33
                      A                      A                      A
 Frequencies --    793.4456               853.0716               870.4549
 Red. masses --      5.3474                 1.3972                 1.4398
 Frc consts  --      1.9835                 0.5991                 0.6428
 IR Inten    --      6.0974                27.1581                38.1706

                     34                     35                     36
                      A                      A                      A
 Frequencies --    875.1020               900.9177               933.2289
 Red. masses --      4.7758                 1.1887                 1.6960
 Frc consts  --      2.1548                 0.5685                 0.8702
 IR Inten    --      1.4223                 2.7219                 3.7315

                     37                     38                     39
                      A                      A                      A
 Frequencies --    977.6087               995.6628              1009.6821
 Red. masses --      2.0843                 1.3041                 1.3429
 Frc consts  --      1.1737                 0.7617                 0.8066
 IR Inten    --     39.8949                 0.0359                 1.1206

                     40                     41                     42
                      A                      A                      A
 Frequencies --   1031.3796              1045.2847              1053.0800
 Red. masses --      3.0742                 4.0193                 1.8641
 Frc consts  --      1.9268                 2.5874                 1.2180
 IR Inten    --      0.5777                 1.4792                 0.7530

                     43                     44                     45
                      A                      A                      A
 Frequencies --   1079.7211              1109.9313              1146.2980
 Red. masses --      2.6395                 2.2962                 2.1899
 Frc consts  --      1.8130                 1.6667                 1.6954
 IR Inten    --      2.6050                 3.0424                 4.9846

                     46                     47                     48
                      A                      A                      A
 Frequencies --   1161.0883              1165.8195              1180.9928
 Red. masses --      1.4719                 2.3837                 1.7758
 Frc consts  --      1.1691                 1.9088                 1.4593
 IR Inten    --     12.9650                 1.1253                 0.8685

                     49                     50                     51
                      A                      A                      A
 Frequencies --   1211.5947              1238.5620              1281.0825
 Red. masses --      1.1812                 1.6536                 1.3325
 Frc consts  --      1.0216                 1.4946                 1.2885
 IR Inten    --    187.6104               298.9576               103.1385

                     52                     53                     54
                      A                      A                      A
 Frequencies --   1297.1467              1314.2917              1327.4414
 Red. masses --      2.1781                 2.9924                 1.1537
 Frc consts  --      2.1593                 3.0454                 1.1977
 IR Inten    --     41.4972               265.6764                 8.1150

                     55                     56                     57
                      A                      A                      A
 Frequencies --   1341.5148              1346.3491              1371.5766
 Red. masses --      1.4574                 1.3539                 5.0122
 Frc consts  --      1.5454                 1.4460                 5.5554
 IR Inten    --     33.5223                 2.3411               138.1961

                     58                     59                     60
                      A                      A                      A
 Frequencies --   1409.4787              1426.0655              1437.2925
 Red. masses --      1.4382                 1.5061                 1.3253
 Frc consts  --      1.6834                 1.8046                 1.6130
 IR Inten    --     93.2675                 1.3526                 1.7631

                     61                     62                     63
                      A                      A                      A
 Frequencies --   1459.1326              1495.8828              1503.0826
 Red. masses --      2.8438                 1.0523                 1.0470
 Frc consts  --      3.5672                 1.3873                 1.3937
 IR Inten    --     31.8107                11.5000                12.5879

                     64                     65                     66
                      A                      A                      A
 Frequencies --   1516.4338              1524.8796              1527.6201
 Red. masses --      1.0598                 1.0473                 1.0755
 Frc consts  --      1.4358                 1.4348                 1.4788
 IR Inten    --      8.0286                16.3417                 2.1957

                     67                     68                     69
                      A                      A                      A
 Frequencies --   1535.3412              1543.2623              1566.9271
 Red. masses --      1.3862                 1.2702                 2.4308
 Frc consts  --      1.9252                 1.7824                 3.5163
 IR Inten    --     40.7024               114.9859               411.3404

                     70                     71                     72
                      A                      A                      A
 Frequencies --   1585.3586              1666.5518              1692.0110
 Red. masses --      2.8548                 4.9125                 6.0653
 Frc consts  --      4.2274                 8.0387                10.2308
 IR Inten    --    872.7057                36.0548               164.3342

                     73                     74                     75
                      A                      A                      A
 Frequencies --   1822.6330              1823.6156              3053.7293
 Red. masses --      9.9703                 9.8121                 1.0704
 Frc consts  --     19.5144                19.2255                 5.8811
 IR Inten    --    363.5355               147.1832                28.6024

                     76                     77                     78
                      A                      A                      A
 Frequencies --   3056.9354              3080.1704              3086.6654
 Red. masses --      1.0668                 1.0364                 1.0375
 Frc consts  --      5.8736                 5.7930                 5.8239
 IR Inten    --     33.8192                30.3673                 1.9598

                     79                     80                     81
                      A                      A                      A
 Frequencies --   3107.8791              3145.7109              3152.5960
 Red. masses --      1.0955                 1.0971                 1.1008
 Frc consts  --      6.2346                 6.3962                 6.4461
 IR Inten    --     15.4265                 1.7076                48.0138

                     82                     83                     84
                      A                      A                      A
 Frequencies --   3154.3325              3160.8735              3199.3198
 Red. masses --      1.1003                 1.1018                 1.0902
 Frc consts  --      6.4503                 6.4859                 6.5745
 IR Inten    --      5.8829                28.6353                17.4728

                     85                     86                     87
                      A                      A                      A
 Frequencies --   3202.3145              3231.7008              3245.3252
 Red. masses --      1.1025                 1.0902                 1.0929
 Frc consts  --      6.6611                 6.7081                 6.7818
 IR Inten    --     10.6083                 6.2833                 2.2008

                     88                     89                     90
                      A                      A                      A
 Frequencies --   3295.5108              3620.4377              3635.6165
 Red. masses --      1.0933                 1.0773                 1.0769
 Frc consts  --      6.9955                 8.3194                 8.3867
 IR Inten    --      6.8903                19.5530                32.0471

 - Thermochemistry -
 -------------------
 Temperature   298.150 Kelvin.  Pressure   1.00000 Atm.
 Atom     1 has atomic number  6 and mass  12.00000

 Molecular mass:   220.12118 amu.
 Principal axes and moments of inertia in atomic units:
                           1         2         3
     Eigenvalues --   744.39656********************
           X            0.99997  -0.00763   0.00035
           Y            0.00763   0.99997   0.00176
           Z           -0.00036  -0.00176   1.00000
 This molecule is an asymmetric top.
 Rotational symmetry number  1.
 Warning -- assumption of classical behavior for rotation
           may cause significant error
 Rotational temperatures (Kelvin)      0.11635     0.00750     0.00707
 Rotational constants (GHZ):           2.42444     0.15617     0.14736
 Zero-point vibrational energy     708676.9 (Joules/Mol)
                                  169.37784 (Kcal/Mol)
 Warning -- explicit consideration of  25 degrees of freedom as
           vibrations may cause significant error
 Vibrational temperatures:     30.05    45.96    81.62    86.26    99.54
          (Kelvin)            104.93   174.09   203.87   263.11   269.77
                              312.52   331.34   341.20   412.18   478.90
                              496.75   530.28   572.20   605.09   652.07
                              724.23   730.13   754.80   861.63   873.18
                              925.79  1047.61  1061.09  1084.45  1102.85
                             1141.59  1227.38  1252.39  1259.07  1296.22
                             1342.71  1406.56  1432.53  1452.71  1483.92
                             1503.93  1515.15  1553.48  1596.94  1649.27
                             1670.55  1677.35  1699.18  1743.21  1782.01
                             1843.19  1866.30  1890.97  1909.89  1930.14
                             1937.09  1973.39  2027.92  2051.79  2067.94
                             2099.36  2152.24  2162.60  2181.81  2193.96
                             2197.90  2209.01  2220.41  2254.46  2280.97
                             2397.79  2434.42  2622.36  2623.77  4393.63
                             4398.24  4431.67  4441.02  4471.54  4525.97
                             4535.88  4538.38  4547.79  4603.10  4607.41
                             4649.69  4669.29  4741.50  5209.00  5230.83

 Zero-point correction=                           0.269921 (Hartree/Particle)
 Thermal correction to Energy=                    0.286563
 Thermal correction to Enthalpy=                  0.287508
 Thermal correction to Gibbs Free Energy=         0.223469
 Sum of electronic and zero-point Energies=           -726.334858
 Sum of electronic and thermal Energies=              -726.318216
 Sum of electronic and thermal Enthalpies=            -726.317272
 Sum of electronic and thermal Free Energies=         -726.381310

                     E (Thermal)             CV                S
                      KCal/Mol        Cal/Mol-Kelvin    Cal/Mol-Kelvin
 Total                  179.821             60.434            134.780
 Electronic               0.000              0.000              0.000
 Translational            0.889              2.981             42.070
 Rotational               0.889              2.981             33.021
 Vibrational            178.044             54.472             59.689
 Vibration     1          0.593              1.986              6.548
 Vibration     2          0.594              1.983              5.705
 Vibration     3          0.596              1.975              4.568
 Vibration     4          0.597              1.973              4.459
 Vibration     5          0.598              1.969              4.177
 Vibration     6          0.599              1.967              4.073
 Vibration     7          0.609              1.932              3.084
 Vibration     8          0.615              1.912              2.781
 Vibration     9          0.630              1.863              2.299
 Vibration    10          0.632              1.857              2.252
 Vibration    11          0.646              1.815              1.982
 Vibration    12          0.652              1.795              1.877
 Vibration    13          0.656              1.784              1.824
 Vibration    14          0.684              1.699              1.495
 Vibration    15          0.715              1.610              1.246
 Vibration    16          0.724              1.585              1.188
 Vibration    17          0.741              1.537              1.086
 Vibration    18          0.764              1.475              0.971
 Vibration    19          0.783              1.426              0.890
 Vibration    20          0.812              1.354              0.786
 Vibration    21          0.859              1.243              0.650
 Vibration    22          0.863              1.233              0.640
 Vibration    23          0.880              1.196              0.599
 Vibration    24          0.957              1.034              0.452
 Vibration    25          0.966              1.017              0.438

 Optimization completed.
    -- Stationary point found.
 Normal termination of Gaussian 09 at Mon Feb  4 12:10:54 2019.
