 Gaussian 09, Revision E.01,

 ----------------------------------------------------------------------
 # M062X/Gen 6D SCF=Tight INT(grid=ultrafine) OPT IOP(2/17=4) maxdisk=2
 684354560
 ----------------------------------------------------------------------

 -----------------------
 34TFM.M062X_6-31pGd_opt
 -----------------------
 Symbolic Z-matrix:
 Charge =  0 Multiplicity = 1

 SCF Done:  E(RM062X) =  -1247.89494565     A.U. after   16 cycles
 SCF Done:  E(RM062X) =  -1247.91279309     A.U. after   13 cycles
 SCF Done:  E(RM062X) =  -1247.91260879     A.U. after   14 cycles
 SCF Done:  E(RM062X) =  -1247.91434958     A.U. after   10 cycles
 SCF Done:  E(RM062X) =  -1247.91459706     A.U. after   12 cycles
 SCF Done:  E(RM062X) =  -1247.91462169     A.U. after   11 cycles
 SCF Done:  E(RM062X) =  -1247.91461674     A.U. after   10 cycles
 SCF Done:  E(RM062X) =  -1247.91462775     A.U. after   10 cycles
 SCF Done:  E(RM062X) =  -1247.91462838     A.U. after    9 cycles
 SCF Done:  E(RM062X) =  -1247.91462852     A.U. after    9 cycles
 SCF Done:  E(RM062X) =  -1247.91784166     A.U. after   12 cycles
 SCF Done:  E(RM062X) =  -1247.91784338     A.U. after   12 cycles
 SCF Done:  E(RM062X) =  -1247.91784354     A.U. after   11 cycles
 SCF Done:  E(RM062X) =  -1247.91784353     A.U. after   10 cycles
 SCF Done:  E(RM062X) =  -1247.91784351     A.U. after   10 cycles
 SCF Done:  E(RM062X) =  -1247.91784349     A.U. after    9 cycles
 SCF Done:  E(RM062X) =  -1247.91784348     A.U. after    9 cycles
 SCF Done:  E(RM062X) =  -1247.91784348     A.U. after    9 cycles
 Optimization completed.
    -- Stationary point found.
 Normal termination of Gaussian 09 at Tue Oct 30 12:23:22 2018.
 Gaussian 09:  ES64L-G09RevE.01 30-Nov-2015

 ----------------------------------------------------------------------
 # M062X/Gen 6D SCF=Tight INT(grid=ultrafine) OPT IOP(2/17=4) Freq=Nora
 man maxdisk=2684354560 geom=check guess=read IOP(2/17=4)
 ----------------------------------------------------------------------

 -----------------------
 34TFM.M062X_6-31pGd_opt
 -----------------------
 Structure from the checkpoint file:  "34TFM.M062X_6-31pGd_opt.chk"
 Charge =  0 Multiplicity = 1

 SCF Done:  E(RM062X) =  -1247.91784348     A.U. after    1 cycles
 Optimization completed.
    -- Stationary point found.
 Normal termination of Gaussian 09 at Tue Oct 30 12:24:01 2018.

 ----------------------------------------------------------------------
 #N Geom=AllCheck Guess=TCheck SCRF=Check Test GenChk RM062X/ChkBas Fre
 q
 ----------------------------------------------------------------------

 Structure from the checkpoint file:  "34TFM.M062X_6-31pGd_opt.chk"
 -----------------------
 34TFM.M062X_6-31pGd_opt
 -----------------------
 Charge =  0 Multiplicity = 1

                         Standard orientation:
 ---------------------------------------------------------------------
 Center     Atomic      Atomic             Coordinates (Angstroms)
 Number     Number       Type             X           Y           Z
 ---------------------------------------------------------------------
      1          6           0       -7.737990    0.519806    0.052411
      2          6           0       -6.556423   -0.447487    0.058903
      3          6           0       -5.231294    0.289147   -0.087071
      4          7           0       -4.118990   -0.654062   -0.078279
      5          6           0       -2.838894   -0.170109    0.029152
      6          8           0       -2.586345    1.001755    0.241082
      7          7           0       -1.865350   -1.159984   -0.094883
      8          6           0       -0.479852   -0.995952   -0.043974
      9          6           0        0.151015    0.256427   -0.061935
     10          6           0        0.309614   -2.149484   -0.000362
     11          6           0        1.692385   -2.057065    0.029639
     12          6           0        2.330598   -0.818746    0.017545
     13          6           0        1.538922    0.338429   -0.036301
     14          1           0       -8.685812   -0.014722    0.159249
     15          1           0       -7.776407    1.088646   -0.882608
     16          1           0       -7.661107    1.236006    0.877138
     17          1           0       -6.669211   -1.168638   -0.762756
     18          1           0       -6.542500   -1.024663    0.991000
     19          1           0       -5.079860    0.979762    0.746795
     20          1           0       -5.222955    0.889212   -1.007973
     21          1           0       -4.260187   -1.516133   -0.590576
     22          1           0       -2.186078   -2.118956   -0.064654
     23          1           0       -0.445585    1.156744   -0.092391
     24          1           0       -0.160637   -3.129689    0.012145
     25          1           0        2.286449   -2.962972    0.070240
     26          6           0        2.136470    1.731873   -0.032823
     27          6           0        3.840674   -0.804967    0.030045
     28          9           0        4.341688    0.128243    0.850226
     29          9           0        4.358298   -0.589627   -1.191377
     30          9           0        4.328946   -1.990080    0.445121
     31          9           0        1.250785    2.647878   -0.454263
     32          9           0        3.204778    1.824445   -0.837526
     33          9           0        2.521470    2.103415    1.198541
 ---------------------------------------------------------------------

 SCF Done:  E(RM062X) =  -1247.91784348     A.U. after    1 cycles

 The electronic state is 1-A.
 Alpha  occ. eigenvalues --  -25.30242 -25.29987 -25.29908 -25.29841 -25.29611
 Alpha  occ. eigenvalues --  -25.29545 -19.63397 -14.82937 -14.80760 -10.81608
 Alpha  occ. eigenvalues --  -10.81472 -10.70781 -10.63844 -10.60805 -10.60112
 Alpha  occ. eigenvalues --  -10.59714 -10.59234 -10.58913 -10.58129 -10.56807
 Alpha  occ. eigenvalues --  -10.55391  -1.46963  -1.46506  -1.37650  -1.37287
 Alpha  occ. eigenvalues --   -1.37163  -1.36989  -1.20187  -1.08668  -1.05254
 Alpha  occ. eigenvalues --   -1.00105  -0.91447  -0.90349  -0.89265  -0.82966
 Alpha  occ. eigenvalues --   -0.81406  -0.79123  -0.75093  -0.74377  -0.70601
 Alpha  occ. eigenvalues --   -0.70552  -0.69410  -0.69173  -0.68889  -0.68511
 Alpha  occ. eigenvalues --   -0.68390  -0.66246  -0.64728  -0.60591  -0.57884
 Alpha  occ. eigenvalues --   -0.57599  -0.57504  -0.56919  -0.56826  -0.56069
 Alpha  occ. eigenvalues --   -0.55514  -0.54761  -0.54239  -0.53395  -0.52779
 Alpha  occ. eigenvalues --   -0.52360  -0.52254  -0.51666  -0.50824  -0.50696
 Alpha  occ. eigenvalues --   -0.50400  -0.49738  -0.49110  -0.48230  -0.46736
 Alpha  occ. eigenvalues --   -0.45447  -0.44372  -0.43939  -0.42491  -0.41829
 Alpha  occ. eigenvalues --   -0.40510  -0.36822  -0.34574  -0.34141  -0.30050
 Alpha virt. eigenvalues --   -0.02355  -0.01625  -0.00855   0.01226   0.02215
 Alpha virt. eigenvalues --    0.02644   0.03028   0.03492   0.04507   0.04911
 Alpha virt. eigenvalues --    0.04998   0.05425   0.06251   0.06421   0.06596

 Mulliken charges:
               1
     1  C   -0.717438
     2  C   -0.317199
     3  C   -0.164700
     4  N   -0.570223
     5  C    0.790407
     6  O   -0.554306
     7  N   -0.670269
     8  C   -0.114295
     9  C    0.656116
    10  C   -0.982891
    11  C   -0.108800
    12  C   -1.054353
    13  C   -0.770440
    14  H    0.215897
    15  H    0.215298
    16  H    0.216921
    17  H    0.203119
    18  H    0.227731
    19  H    0.245213
    20  H    0.218786
    21  H    0.387056
    22  H    0.414712
    23  H    0.306182
    24  H    0.206079
    25  H    0.247975
    26  C    1.596426
    27  C    1.559118
    28  F   -0.269806
    29  F   -0.244674
    30  F   -0.328149
    31  F   -0.318995
    32  F   -0.274574
    33  F   -0.245923
 Sum of Mulliken charges =  -0.00000

 Dipole moment (field-independent basis, Debye):
    X=             -7.1517    Y=             -5.6011    Z=             -0.9805  Tot=              9.1368
 Quadrupole moment (field-independent basis, Debye-Ang):
   XX=           -111.7201   YY=           -115.0179   ZZ=           -123.2609
   XY=              6.8095   XZ=              3.7574   YZ=              0.6906

  Exact polarizability: 229.140  -2.920 156.690   1.522   0.545 104.525
 Approx polarizability: 224.084   1.239 204.872   2.157   1.674 137.164

                      1                      2                      3
                      A                      A                      A
 Frequencies --     14.8442                18.3642                50.3740
 Red. masses --      2.5381                 5.7221                 4.9635
 Frc consts  --      0.0003                 0.0011                 0.0074
 IR Inten    --      3.3974                 0.6860                 0.4166

                      4                      5                      6
                      A                      A                      A
 Frequencies --     51.9214                64.1407                72.2375
 Red. masses --      5.1009                 4.4292                 4.2106
 Frc consts  --      0.0081                 0.0107                 0.0129
 IR Inten    --      3.8209                 2.8186                 0.8066

                      7                      8                      9
                      A                      A                      A
 Frequencies --     91.3807                99.6138               124.7635
 Red. masses --     18.3970                 4.7939                 6.0042
 Frc consts  --      0.0905                 0.0280                 0.0551
 IR Inten    --      0.0242                 0.1990                 3.3541

                     10                     11                     12
                      A                      A                      A
 Frequencies --    141.0284               167.2054               187.3095
 Red. masses --      7.6948                13.4972                 2.7675
 Frc consts  --      0.0902                 0.2223                 0.0572
 IR Inten    --      0.2757                 0.8357                 0.5301

                     13                     14                     15
                      A                      A                      A
 Frequencies --    203.8329               229.7612               235.5458
 Red. masses --      6.9710                 6.3045                 2.4986
 Frc consts  --      0.1706                 0.1961                 0.0817
 IR Inten    --      0.4843                 9.4845                 0.7238

                     16                     17                     18
                      A                      A                      A
 Frequencies --    239.4212               261.9845               315.0907
 Red. masses --      1.5867                 8.5506                 6.2179
 Frc consts  --      0.0536                 0.3458                 0.3637
 IR Inten    --      1.6794                 2.2146                 0.3518

                     19                     20                     21
                      A                      A                      A
 Frequencies --    335.2168               339.4146               360.1429
 Red. masses --      2.9499                13.4087                 1.8080
 Frc consts  --      0.1953                 0.9101                 0.1382
 IR Inten    --     52.4340                 2.5389                44.5500

                     22                     23                     24
                      A                      A                      A
 Frequencies --    384.8458               396.8386               419.6369
 Red. masses --      7.7176                 4.5202                 4.9307
 Frc consts  --      0.6735                 0.4194                 0.5116
 IR Inten    --      3.2121                 9.0567                 4.6895

                     25                     26                     27
                      A                      A                      A
 Frequencies --    460.7604               479.4348               496.7098
 Red. masses --      6.6237                 6.1162                 1.5564
 Frc consts  --      0.8285                 0.8283                 0.2262
 IR Inten    --      8.1309                 0.8147                77.3596

                     28                     29                     30
                      A                      A                      A
 Frequencies --    512.8144               535.8568               570.1686
 Red. masses --      2.8133                11.7171                13.4356
 Frc consts  --      0.4359                 1.9823                 2.5734
 IR Inten    --     64.7132                 1.6426                 1.9885

                     31                     32                     33
                      A                      A                      A
 Frequencies --    605.4999               619.7600               656.3393
 Red. masses --      5.1352                 8.2722                 5.6116
 Frc consts  --      1.1093                 1.8721                 1.4243
 IR Inten    --     14.7109                 0.7066                 1.5043

                     34                     35                     36
                      A                      A                      A
 Frequencies --    659.9607               681.0261               751.8166
 Red. masses --      6.9620                 9.0114                 1.8324
 Frc consts  --      1.7866                 2.4625                 0.6102
 IR Inten    --      6.9096                15.5675                10.8432

                     37                     38                     39
                      A                      A                      A
 Frequencies --    764.7426               770.0157               774.1728
 Red. masses --      2.0816                 5.3931                 6.6223
 Frc consts  --      0.7173                 1.8840                 2.3385
 IR Inten    --      6.4785                 0.5392                11.1024

                     40                     41                     42
                      A                      A                      A
 Frequencies --    778.0454               806.0505               856.9642
 Red. masses --     10.9128                 6.7214                 1.5003
 Frc consts  --      3.8922                 2.5730                 0.6492
 IR Inten    --      6.7557                 4.6945                42.0716

                     43                     44                     45
                      A                      A                      A
 Frequencies --    899.4713               927.9131               948.9115
 Red. masses --      1.1821                 1.8174                 1.4079
 Frc consts  --      0.5635                 0.9220                 0.7469
 IR Inten    --      2.3736                 1.2078                18.8284

                     46                     47                     48
                      A                      A                      A
 Frequencies --    960.2239               990.6023              1044.9745
 Red. masses --      4.8600                 1.3409                 4.2515
 Frc consts  --      2.6401                 0.7752                 2.7353
 IR Inten    --     18.6661                 3.2715                 2.6022

                     49                     50                     51
                      A                      A                      A
 Frequencies --   1051.9369              1079.9077              1135.4488
 Red. masses --      6.0894                 2.6506                 3.5019
 Frc consts  --      3.9701                 1.8212                 2.6601
 IR Inten    --     46.4445                 7.5308               134.0763

                     52                     53                     54
                      A                      A                      A
 Frequencies --   1148.5973              1164.8368              1179.5583
 Red. masses --      2.5062                 2.4710                 2.0443
 Frc consts  --      1.9480                 1.9754                 1.6759
 IR Inten    --     10.3967                 1.7165                37.3621

                     55                     56                     57
                      A                      A                      A
 Frequencies --   1180.9815              1213.0042              1228.3796
 Red. masses --      1.7517                 8.3043                 2.6717
 Frc consts  --      1.4394                 7.1991                 2.3752
 IR Inten    --      3.5593                18.7359               357.6298

                     58                     59                     60
                      A                      A                      A
 Frequencies --   1240.9778              1247.9265              1258.9646
 Red. masses --      1.9596                 7.6764                 9.6443
 Frc consts  --      1.7781                 7.0435                 9.0063
 IR Inten    --    225.7113               441.1184               169.3205

                     61                     62                     63
                      A                      A                      A
 Frequencies --   1282.0367              1293.0859              1316.3064
 Red. masses --      1.3296                 2.2976                 1.6187
 Frc consts  --      1.2876                 2.2635                 1.6525
 IR Inten    --    100.5354                36.7520                45.9186

                     64                     65                     66
                      A                      A                      A
 Frequencies --   1325.8320              1333.6201              1348.2205
 Red. masses --      1.2833                 2.4526                 1.5299
 Frc consts  --      1.3291                 2.5701                 1.6385
 IR Inten    --     34.2379               249.2712               104.5354

                     67                     68                     69
                      A                      A                      A
 Frequencies --   1362.0910              1384.3873              1425.8959
 Red. masses --      4.7065                 4.6644                 1.5354
 Frc consts  --      5.1448                 5.2670                 1.8392
 IR Inten    --    236.8250               441.5279                 2.1151

                     70                     71                     72
                      A                      A                      A
 Frequencies --   1437.8651              1481.6325              1515.7598
 Red. masses --      1.3109                 4.7312                 1.0604
 Frc consts  --      1.5968                 6.1193                 1.4354
 IR Inten    --      1.9795               222.8976                 6.4031

                     73                     74                     75
                      A                      A                      A
 Frequencies --   1524.8520              1527.3089              1535.4750
 Red. masses --      1.0481                 1.0735                 1.3648
 Frc consts  --      1.4358                 1.4754                 1.8958
 IR Inten    --     16.6019                 1.5901                72.3984

                     76                     77                     78
                      A                      A                      A
 Frequencies --   1542.7508              1567.9828              1596.4725
 Red. masses --      1.2848                 2.5163                 3.0519
 Frc consts  --      1.8016                 3.6450                 4.5829
 IR Inten    --    126.7607               293.3123               519.4577

                     79                     80                     81
                      A                      A                      A
 Frequencies --   1672.4987              1703.0745              1829.7976
 Red. masses --      6.1195                 6.3097                 8.8727
 Frc consts  --     10.0855                10.7827                17.5030
 IR Inten    --    112.9799                64.4171               275.1479

                     82                     83                     84
                      A                      A                      A
 Frequencies --   3057.0857              3058.9177              3080.7928
 Red. masses --      1.0647                 1.0714                 1.0365
 Frc consts  --      5.8627                 5.9065                 5.7960
 IR Inten    --     15.0039                42.2624                28.9185

                     85                     86                     87
                      A                      A                      A
 Frequencies --   3106.7303              3146.2511              3153.2736
 Red. masses --      1.0962                 1.0971                 1.1015
 Frc consts  --      6.2335                 6.3988                 6.4528
 IR Inten    --     16.0654                 0.8225                46.4630

                     88                     89                     90
                      A                      A                      A
 Frequencies --   3161.6209              3212.7528              3260.1048
 Red. masses --      1.1019                 1.0909                 1.0931
 Frc consts  --      6.4897                 6.6342                 6.8447
 IR Inten    --     27.1643                10.0481                 0.4027

                     91                     92                     93
                      A                      A                      A
 Frequencies --   3311.9512              3622.0606              3638.4517
 Red. masses --      1.0912                 1.0774                 1.0771
 Frc consts  --      7.0520                 8.3278                 8.4008
 IR Inten    --     22.7395                22.1110                34.4451

 - Thermochemistry -
 -------------------
 Temperature   298.150 Kelvin.  Pressure   1.00000 Atm.
 Atom     1 has atomic number  6 and mass  12.00000

 Molecular mass:   314.08538 amu.
 Principal axes and moments of inertia in atomic units:
                           1         2         3
     Eigenvalues --  2541.34203********************
           X            1.00000  -0.00279   0.00039
           Y            0.00279   0.99999   0.00155
           Z           -0.00039  -0.00155   1.00000
 This molecule is an asymmetric top.
 Rotational symmetry number  1.
 Warning -- assumption of classical behavior for rotation
           may cause significant error
 Rotational temperatures (Kelvin)      0.03408     0.00566     0.00505
 Rotational constants (GHZ):           0.71015     0.11801     0.10522
 Zero-point vibrational energy     635842.8 (Joules/Mol)
                                  151.97007 (Kcal/Mol)
 Warning -- explicit consideration of  32 degrees of freedom as
           vibrations may cause significant error
 Vibrational temperatures:     21.36    26.42    72.48    74.70    92.28
          (Kelvin)            103.93   131.48   143.32   179.51   202.91
                              240.57   269.50   293.27   330.57   338.90
                              344.47   376.94   453.34   482.30   488.34
                              518.16   553.71   570.96   603.76   662.93
                              689.80   714.65   737.82   770.98   820.34
                              871.18   891.70   944.32   949.54   979.84
                             1081.70  1100.29  1107.88  1113.86  1119.43
                             1159.73  1232.98  1294.14  1335.06  1365.27
                             1381.55  1425.25  1503.48  1513.50  1553.74
                             1633.66  1652.57  1675.94  1697.12  1699.17
                             1745.24  1767.36  1785.49  1795.49  1811.37
                             1844.56  1860.46  1893.87  1907.57  1918.78
                             1939.79  1959.74  1991.82  2051.54  2068.76
                             2131.74  2180.84  2193.92  2197.45  2209.20
                             2219.67  2255.97  2296.96  2406.35  2450.34
                             2632.67  4398.46  4401.09  4432.57  4469.89
                             4526.75  4536.85  4548.86  4622.43  4690.56
                             4765.15  5211.33  5234.91

 Zero-point correction=                           0.242180 (Hartree/Particle)
 Thermal correction to Energy=                    0.262295
 Thermal correction to Enthalpy=                  0.263239
 Thermal correction to Gibbs Free Energy=         0.190299
 Sum of electronic and zero-point Energies=          -1247.675664
 Sum of electronic and thermal Energies=             -1247.655549
 Sum of electronic and thermal Enthalpies=           -1247.654605
 Sum of electronic and thermal Free Energies=        -1247.727545

                     E (Thermal)             CV                S
                      KCal/Mol        Cal/Mol-Kelvin    Cal/Mol-Kelvin
 Total                  164.592             72.990            153.516
 Electronic               0.000              0.000              0.000
 Translational            0.889              2.981             43.130
 Rotational               0.889              2.981             34.854
 Vibrational            162.815             67.028             75.532
 Vibration     1          0.593              1.986              7.226
 Vibration     2          0.593              1.986              6.804
 Vibration     3          0.595              1.977              4.803
 Vibration     4          0.596              1.977              4.743
 Vibration     5          0.597              1.971              4.326
 Vibration     6          0.598              1.967              4.091
 Vibration     7          0.602              1.955              3.630
 Vibration     8          0.604              1.949              3.462
 Vibration     9          0.610              1.928              3.025
 Vibration    10          0.615              1.912              2.790
 Vibration    11          0.624              1.883              2.467
 Vibration    12          0.632              1.857              2.254
 Vibration    13          0.640              1.834              2.098
 Vibration    14          0.652              1.796              1.881
 Vibration    15          0.655              1.786              1.836
 Vibration    16          0.657              1.780              1.807
 Vibration    17          0.669              1.742              1.649
 Vibration    18          0.702              1.645              1.335
 Vibration    19          0.716              1.605              1.235
 Vibration    20          0.719              1.597              1.215
 Vibration    21          0.735              1.554              1.121
 Vibration    22          0.754              1.503              1.020
 Vibration    23          0.763              1.477              0.974
 Vibration    24          0.782              1.428              0.893
 Vibration    25          0.819              1.337              0.764
 Vibration    26          0.836              1.296              0.712
 Vibration    27          0.852              1.257              0.666
 Vibration    28          0.868              1.222              0.627
 Vibration    29          0.891              1.171              0.574
 Vibration    30          0.926              1.096              0.504
 Vibration    31          0.964              1.020              0.440
 Vibration    32          0.980              0.990              0.417

 Normal termination of Gaussian 09 at Tue Oct 30 12:57:01 2018.
