 Gaussian 09, Revision E.01,

 ----------------------------------------------------------------------
 # M062X/Gen 6D SCF=Tight INT(grid=ultrafine) OPT IOP(2/17=4) SCRF=(SMD
 ,Solvent=n-Pentadecane) maxdisk=2684354560
 ----------------------------------------------------------------------

 -----------------------------------
 34TFM.M062X_6-31pGd_opt_Pentadecane
 -----------------------------------
 Symbolic Z-matrix:
 Charge =  0 Multiplicity = 1

 SCF Done:  E(RM062X) =  -1247.88836839     A.U. after   15 cycles
 SCF Done:  E(RM062X) =  -1247.92313892     A.U. after   13 cycles
 SCF Done:  E(RM062X) =  -1247.92370020     A.U. after   14 cycles
 SCF Done:  E(RM062X) =  -1247.92386453     A.U. after   15 cycles
 SCF Done:  E(RM062X) =  -1247.92936527     A.U. after   13 cycles
 SCF Done:  E(RM062X) =  -1247.92980883     A.U. after   12 cycles
 SCF Done:  E(RM062X) =  -1247.92947512     A.U. after   12 cycles
 SCF Done:  E(RM062X) =  -1247.92991044     A.U. after   11 cycles
 SCF Done:  E(RM062X) =  -1247.92991821     A.U. after   11 cycles
 SCF Done:  E(RM062X) =  -1247.92992254     A.U. after   10 cycles
 SCF Done:  E(RM062X) =  -1247.93280679     A.U. after   12 cycles
 SCF Done:  E(RM062X) =  -1247.93280742     A.U. after    9 cycles
 SCF Done:  E(RM062X) =  -1247.93280709     A.U. after   11 cycles
 SCF Done:  E(RM062X) =  -1247.93280786     A.U. after   10 cycles
 SCF Done:  E(RM062X) =  -1247.93280804     A.U. after    9 cycles
 SCF Done:  E(RM062X) =  -1247.93280812     A.U. after    9 cycles
 SCF Done:  E(RM062X) =  -1247.93280820     A.U. after    8 cycles
 SCF Done:  E(RM062X) =  -1247.93280826     A.U. after    8 cycles
 SCF Done:  E(RM062X) =  -1247.93280831     A.U. after    8 cycles
 Optimization completed.
    -- Stationary point found.
 Normal termination of Gaussian 09 at Fri Feb 22 14:12:33 2019.
 Gaussian 09:  ES64L-G09RevE.01 30-Nov-2015

 ----------------------------------------------------------------------
 # M062X/Gen 6D SCF=Tight INT(grid=ultrafine) SCRF=(SMD,Solvent=n-Penta
 decane) Freq=Noraman maxdisk=2684354560 geom=check guess=read IOP(2/17
 =4)
 ----------------------------------------------------------------------

 -----------------------------------
 34TFM.M062X_6-31pGd_opt_Pentadecane
 -----------------------------------
 Structure from the checkpoint file:  "34TFM.M062X_6-31pGd_opt_Pentadecane.chk"
 Charge =  0 Multiplicity = 1

                         Standard orientation:
 ---------------------------------------------------------------------
 Center     Atomic      Atomic             Coordinates (Angstroms)
 Number     Number       Type             X           Y           Z
 ---------------------------------------------------------------------
      1          6           0        7.751143    0.488865    0.072881
      2          6           0        6.552038   -0.453821    0.115449
      3          6           0        5.246541    0.293970   -0.121728
      4          7           0        4.118568   -0.627887   -0.082617
      5          6           0        2.843276   -0.148489   -0.001595
      6          8           0        2.583699    1.034999    0.155186
      7          7           0        1.870273   -1.141442   -0.085548
      8          6           0        0.487021   -0.983501   -0.043926
      9          6           0       -0.153380    0.265481   -0.054988
     10          6           0       -0.297595   -2.142344   -0.010163
     11          6           0       -1.680403   -2.058801    0.019810
     12          6           0       -2.326618   -0.823960    0.017288
     13          6           0       -1.541444    0.338267   -0.030173
     14          1           0        8.685130   -0.053915    0.245531
     15          1           0        7.667500    1.265105    0.841289
     16          1           0        7.827896    0.987119   -0.899763
     17          1           0        6.501900   -0.959702    1.087176
     18          1           0        6.671188   -1.234360   -0.648629
     19          1           0        5.278192    0.823554   -1.084168
     20          1           0        5.088238    1.045263    0.656769
     21          1           0        4.270490   -1.554581   -0.462587
     22          1           0        2.193966   -2.101579   -0.082934
     23          1           0        0.437733    1.169382   -0.082317
     24          1           0        0.178663   -3.119363   -0.004182
     25          1           0       -2.266405   -2.970635    0.051340
     26          6           0       -2.147862    1.725948   -0.022046
     27          6           0       -3.834377   -0.817173    0.031606
     28          9           0       -4.342888    0.114728    0.852461
     29          9           0       -4.322352   -2.002229    0.445904
     30          9           0       -4.360868   -0.600747   -1.188487
     31          9           0       -1.272242    2.653747   -0.439098
     32          9           0       -2.540306    2.095791    1.209701
     33          9           0       -3.218679    1.816751   -0.826740
 ---------------------------------------------------------------------

 SCF Done:  E(RM062X) =  -1247.93280831     A.U. after    1 cycles

 The electronic state is 1-A.
 Alpha  occ. eigenvalues --  -25.30469 -25.30289 -25.30203 -25.30181 -25.29896
 Alpha  occ. eigenvalues --  -25.29892 -19.62524 -14.81992 -14.79755 -10.81774
 Alpha  occ. eigenvalues --  -10.81697 -10.69972 -10.63292 -10.60566 -10.59799
 Alpha  occ. eigenvalues --  -10.58692 -10.58661 -10.58157 -10.57703 -10.55589
 Alpha  occ. eigenvalues --  -10.54197  -1.47218  -1.46760  -1.37904  -1.37541
 Alpha  occ. eigenvalues --   -1.37419  -1.37242  -1.19241  -1.07790  -1.04342
 Alpha  occ. eigenvalues --   -0.99692  -0.90868  -0.89954  -0.88480  -0.82829
 Alpha  occ. eigenvalues --   -0.81177  -0.78542  -0.74721  -0.74120  -0.70356
 Alpha  occ. eigenvalues --   -0.69511  -0.69449  -0.69373  -0.68858  -0.68766
 Alpha  occ. eigenvalues --   -0.68062  -0.65726  -0.64034  -0.60059  -0.57887
 Alpha  occ. eigenvalues --   -0.57815  -0.57142  -0.57038  -0.56751  -0.55514
 Alpha  occ. eigenvalues --   -0.55409  -0.54225  -0.53766  -0.53284  -0.52656
 Alpha  occ. eigenvalues --   -0.52546  -0.52152  -0.51173  -0.51127  -0.50940
 Alpha  occ. eigenvalues --   -0.50259  -0.48947  -0.48748  -0.47381  -0.45897
 Alpha  occ. eigenvalues --   -0.45275  -0.43642  -0.43228  -0.41354  -0.40702
 Alpha  occ. eigenvalues --   -0.39827  -0.35966  -0.34075  -0.33278  -0.29315
 Alpha virt. eigenvalues --   -0.01985  -0.00480  -0.00190   0.02194   0.02994
 Alpha virt. eigenvalues --    0.03197   0.03634   0.03884   0.04753   0.05154
 Alpha virt. eigenvalues --    0.05217   0.05687   0.06739   0.06925   0.06976

 Mulliken charges:
               1
     1  C   -0.738216
     2  C   -0.333568
     3  C   -0.184403
     4  N   -0.618747
     5  C    0.782630
     6  O   -0.591904
     7  N   -0.656727
     8  C   -0.353927
     9  C    0.277395
    10  C   -0.531821
    11  C   -0.378658
    12  C   -0.543227
    13  C   -0.773460
    14  H    0.218905
    15  H    0.220283
    16  H    0.218530
    17  H    0.229905
    18  H    0.211647
    19  H    0.224093
    20  H    0.246925
    21  H    0.415277
    22  H    0.440862
    23  H    0.307818
    24  H    0.228481
    25  H    0.261194
    26  C    1.606504
    27  C    1.547672
    28  F   -0.284126
    29  F   -0.333363
    30  F   -0.258018
    31  F   -0.324995
    32  F   -0.251442
    33  F   -0.281519
 Sum of Mulliken charges =  -0.00000

 Dipole moment (field-independent basis, Debye):
    X=              8.1467    Y=             -6.6874    Z=             -0.9046  Tot=             10.5786
 Quadrupole moment (field-independent basis, Debye-Ang):
   XX=           -111.3676   YY=           -113.9399   ZZ=           -123.6384
   XY=             -8.6324   XZ=             -3.4024   YZ=              0.8027

  Exact polarizability: 252.653   2.850 178.877  -1.940   0.214 116.350
 Approx polarizability: 226.797  -1.062 203.995  -2.187   1.018 136.900

                      1                      2                      3
                      A                      A                      A
 Frequencies --     13.4686                28.7862                47.8264
 Red. masses --      5.5402                 2.9798                 5.9301
 Frc consts  --      0.0006                 0.0015                 0.0080
 IR Inten    --      1.0513                 6.0344                 1.0655

                      4                      5                      6
                      A                      A                      A
 Frequencies --     51.0368                62.7052                71.3081
 Red. masses --      4.1935                 4.0217                 3.7556
 Frc consts  --      0.0064                 0.0093                 0.0113
 IR Inten    --      5.6771                 3.0053                 1.5726

                      7                      8                      9
                      A                      A                      A
 Frequencies --     90.0791               100.6824               123.8134
 Red. masses --     18.3227                 4.8742                 5.8530
 Frc consts  --      0.0876                 0.0291                 0.0529
 IR Inten    --      0.0299                 0.2064                 5.5079

                     10                     11                     12
                      A                      A                      A
 Frequencies --    139.6304               167.1319               186.9971
 Red. masses --      7.8538                13.5422                 3.1375
 Frc consts  --      0.0902                 0.2229                 0.0646
 IR Inten    --      0.1703                 1.2565                 2.2904

                     13                     14                     15
                      A                      A                      A
 Frequencies --    204.7465               230.8246               234.2986
 Red. masses --      7.5344                 6.4735                 1.3707
 Frc consts  --      0.1861                 0.2032                 0.0443
 IR Inten    --      0.2555                11.0918                 0.4579

                     16                     17                     18
                      A                      A                      A
 Frequencies --    238.1552               262.2432               315.0884
 Red. masses --      3.1628                 7.9538                 3.4047
 Frc consts  --      0.1057                 0.3223                 0.1992
 IR Inten    --      2.9756                 4.1327                14.6570

                     19                     20                     21
                      A                      A                      A
 Frequencies --    321.7830               338.6598               346.0096
 Red. masses --      1.9895                12.5958                 3.1098
 Frc consts  --      0.1214                 0.8511                 0.2194
 IR Inten    --     84.4693                 0.5014                11.4087

                     22                     23                     24
                      A                      A                      A
 Frequencies --    386.0076               397.4206               417.7039
 Red. masses --      7.9633                 5.2972                 5.0012
 Frc consts  --      0.6991                 0.4929                 0.5141
 IR Inten    --      3.8404                13.5717                 5.1265

                     25                     26                     27
                      A                      A                      A
 Frequencies --    462.0217               478.3968               509.0285
 Red. masses --      7.5389                 6.2060                 5.1349
 Frc consts  --      0.9482                 0.8368                 0.7839
 IR Inten    --      6.9243                 1.2482                22.0298

                     28                     29                     30
                      A                      A                      A
 Frequencies --    533.1252               536.3090               569.9552
 Red. masses --      1.4834                 4.0959                13.8547
 Frc consts  --      0.2484                 0.6941                 2.6517
 IR Inten    --    129.1824                18.7946                 1.7172

                     31                     32                     33
                      A                      A                      A
 Frequencies --    604.4084               620.5596               656.4633
 Red. masses --      5.2404                 8.3126                 5.5106
 Frc consts  --      1.1279                 1.8860                 1.3992
 IR Inten    --     19.2558                 1.0753                 1.9953

                     34                     35                     36
                      A                      A                      A
 Frequencies --    659.6046               680.3832               754.6679
 Red. masses --      7.2841                 9.2370                 1.8745
 Frc consts  --      1.8672                 2.5194                 0.6290
 IR Inten    --      9.7272                18.6240                12.8352

                     37                     38                     39
                      A                      A                      A
 Frequencies --    766.0278               768.4332               773.6080
 Red. masses --      2.3706                 4.0856                 6.5201
 Frc consts  --      0.8196                 1.4214                 2.2990
 IR Inten    --      4.8638                 0.6696                13.1248

                     40                     41                     42
                      A                      A                      A
 Frequencies --    776.8289               804.9730               859.3338
 Red. masses --     10.6453                 7.1233                 1.4952
 Frc consts  --      3.7849                 2.7195                 0.6505
 IR Inten    --      5.5623                 3.8218                54.7608

                     43                     44                     45
                      A                      A                      A
 Frequencies --    901.4483               929.0494               946.1987
 Red. masses --      1.1840                 1.8265                 1.4092
 Frc consts  --      0.5669                 0.9288                 0.7433
 IR Inten    --      2.6829                 1.1488                24.0161

                     46                     47                     48
                      A                      A                      A
 Frequencies --    959.6881               994.8036              1047.2951
 Red. masses --      4.7627                 1.3401                 4.3603
 Frc consts  --      2.5844                 0.7814                 2.8178
 IR Inten    --     22.5599                 3.6859                 1.8027

                     49                     50                     51
                      A                      A                      A
 Frequencies --   1049.9006              1082.8779              1134.3592
 Red. masses --      6.0440                 2.5826                 3.5543
 Frc consts  --      3.9253                 1.7843                 2.6947
 IR Inten    --     58.3928                 9.6315               179.2409

                     52                     53                     54
                      A                      A                      A
 Frequencies --   1152.5644              1166.3949              1177.3198
 Red. masses --      2.4709                 2.4919                 2.7934
 Frc consts  --      1.9339                 1.9975                 2.2813
 IR Inten    --      8.5284                 6.0529                85.0864

                     55                     56                     57
                      A                      A                      A
 Frequencies --   1182.1288              1193.7355              1218.0071
 Red. masses --      1.8530                 8.2213                 3.7260
 Frc consts  --      1.5256                 6.9025                 3.2568
 IR Inten    --      8.2816                 9.0251               452.0892

                     58                     59                     60
                      A                      A                      A
 Frequencies --   1223.6614              1242.8649              1253.8199
 Red. masses --      3.6340                 9.7197                 1.6579
 Frc consts  --      3.2060                 8.8460                 1.5356
 IR Inten    --    491.9815               260.0910               272.7796

                     61                     62                     63
                      A                      A                      A
 Frequencies --   1281.8268              1299.7800              1319.4579
 Red. masses --      1.2935                 2.3923                 1.8816
 Frc consts  --      1.2522                 2.3812                 1.9300
 IR Inten    --    148.4446                46.5865               119.6956

                     64                     65                     66
                      A                      A                      A
 Frequencies --   1324.6984              1333.4786              1352.1158
 Red. masses --      1.2632                 2.5525                 1.4619
 Frc consts  --      1.3060                 2.6742                 1.5746
 IR Inten    --     30.7616               272.7332               160.0465

                     67                     68                     69
                      A                      A                      A
 Frequencies --   1360.9988              1387.7632              1426.6790
 Red. masses --      3.9918                 4.8730                 1.5023
 Frc consts  --      4.3564                 5.5294                 1.8016
 IR Inten    --    331.6319               490.2141                 0.8873

                     70                     71                     72
                      A                      A                      A
 Frequencies --   1437.2667              1483.3606              1509.0001
 Red. masses --      1.3461                 4.9893                 1.0602
 Frc consts  --      1.6384                 6.4682                 1.4224
 IR Inten    --      2.1524               228.2075                 6.5924

                     73                     74                     75
                      A                      A                      A
 Frequencies --   1519.1354              1522.1690              1534.8200
 Red. masses --      1.0399                 1.0753                 1.0948
 Frc consts  --      1.4140                 1.4679                 1.5195
 IR Inten    --     13.3281                 2.7939                 6.7565

                     76                     77                     78
                      A                      A                      A
 Frequencies --   1551.8702              1575.9423              1607.9690
 Red. masses --      1.7444                 2.8089                 2.4741
 Frc consts  --      2.4752                 4.1103                 3.7689
 IR Inten    --    419.3579               107.5097               608.9926

                     79                     80                     81
                      A                      A                      A
 Frequencies --   1674.3052              1701.5205              1809.5798
 Red. masses --      5.0262                 5.7788                 7.6375
 Frc consts  --      8.3016                 9.8575                14.7353
 IR Inten    --    202.3821                44.2864               389.9971

                     82                     83                     84
                      A                      A                      A
 Frequencies --   3060.3654              3065.1343              3080.0123
 Red. masses --      1.0683                 1.0650                 1.0365
 Frc consts  --      5.8949                 5.8950                 5.7934
 IR Inten    --     24.5809                45.5906                34.2993

                     85                     86                     87
                      A                      A                      A
 Frequencies --   3107.9777              3144.6270              3151.9573
 Red. masses --      1.0982                 1.0977                 1.1022
 Frc consts  --      6.2504                 6.3952                 6.4516
 IR Inten    --     17.8974                 1.0278                61.3122

                     88                     89                     90
                      A                      A                      A
 Frequencies --   3158.6507              3219.1546              3258.7486
 Red. masses --      1.1021                 1.0913                 1.0936
 Frc consts  --      6.4783                 6.6631                 6.8423
 IR Inten    --     32.7439                 7.7412                 0.2847

                     91                     92                     93
                      A                      A                      A
 Frequencies --   3314.4188              3618.6450              3626.7380
 Red. masses --      1.0911                 1.0781                 1.0779
 Frc consts  --      7.0619                 8.3177                 8.3532
 IR Inten    --     28.0078                 8.2292                99.0046

 - Thermochemistry -
 -------------------
 Temperature   298.150 Kelvin.  Pressure   1.00000 Atm.
 Atom     1 has atomic number  6 and mass  12.00000

 Molecular mass:   314.08538 amu.
 Principal axes and moments of inertia in atomic units:
                           1         2         3
     Eigenvalues --  2538.53186********************
           X            1.00000   0.00248  -0.00005
           Y           -0.00248   1.00000   0.00114
           Z            0.00005  -0.00114   1.00000
 This molecule is an asymmetric top.
 Rotational symmetry number  1.
 Warning -- assumption of classical behavior for rotation
           may cause significant error
 Rotational temperatures (Kelvin)      0.03412     0.00565     0.00504
 Rotational constants (GHZ):           0.71094     0.11779     0.10504
 Zero-point vibrational energy     635616.7 (Joules/Mol)
                                  151.91604 (Kcal/Mol)
 Warning -- explicit consideration of  32 degrees of freedom as
           vibrations may cause significant error
 Vibrational temperatures:     19.38    41.42    68.81    73.43    90.22
          (Kelvin)            102.60   129.60   144.86   178.14   200.90
                              240.47   269.05   294.58   332.10   337.10
                              342.65   377.31   453.34   462.97   487.26
                              497.83   555.38   571.80   600.98   664.75
                              688.31   732.38   767.05   771.63   820.04
                              869.61   892.85   944.50   949.02   978.92
                             1085.80  1102.14  1105.60  1113.05  1117.68
                             1158.18  1236.39  1296.98  1336.69  1361.37
                             1380.78  1431.30  1506.82  1510.57  1558.02
                             1632.09  1658.28  1678.18  1693.90  1700.82
                             1717.52  1752.44  1760.57  1788.20  1803.96
                             1844.26  1870.09  1898.40  1905.94  1918.58
                             1945.39  1958.17  1996.68  2052.67  2067.90
                             2134.22  2171.11  2185.69  2190.06  2208.26
                             2232.79  2267.43  2313.51  2408.95  2448.11
                             2603.58  4403.18  4410.04  4431.45  4471.68
                             4524.41  4534.96  4544.59  4631.64  4688.61
                             4768.70  5206.42  5218.06

 Zero-point correction=                           0.242094 (Hartree/Particle)
 Thermal correction to Energy=                    0.262217
 Thermal correction to Enthalpy=                  0.263161
 Thermal correction to Gibbs Free Energy=         0.190404
 Sum of electronic and zero-point Energies=          -1247.690715
 Sum of electronic and thermal Energies=             -1247.670592
 Sum of electronic and thermal Enthalpies=           -1247.669648
 Sum of electronic and thermal Free Energies=        -1247.742404

                     E (Thermal)             CV                S
                      KCal/Mol        Cal/Mol-Kelvin    Cal/Mol-Kelvin
 Total                  164.543             72.995            153.129
 Electronic               0.000              0.000              0.000
 Translational            0.889              2.981             43.130
 Rotational               0.889              2.981             34.857
 Vibrational            162.766             67.034             75.143
 Vibration     1          0.593              1.987              7.419
 Vibration     2          0.593              1.984              5.911
 Vibration     3          0.595              1.978              4.905
 Vibration     4          0.595              1.977              4.777
 Vibration     5          0.597              1.972              4.370
 Vibration     6          0.598              1.968              4.117
 Vibration     7          0.602              1.956              3.658
 Vibration     8          0.604              1.949              3.441
 Vibration     9          0.610              1.929              3.040
 Vibration    10          0.615              1.914              2.809
 Vibration    11          0.624              1.883              2.467
 Vibration    12          0.632              1.858              2.257
 Vibration    13          0.640              1.833              2.090
 Vibration    14          0.653              1.794              1.873
 Vibration    15          0.654              1.788              1.846
 Vibration    16          0.656              1.782              1.817
 Vibration    17          0.670              1.742              1.647
 Vibration    18          0.702              1.645              1.335
 Vibration    19          0.707              1.632              1.301
 Vibration    20          0.719              1.598              1.218
 Vibration    21          0.724              1.583              1.184
 Vibration    22          0.755              1.500              1.016
 Vibration    23          0.764              1.476              0.972
 Vibration    24          0.781              1.432              0.900
 Vibration    25          0.820              1.334              0.760
 Vibration    26          0.835              1.298              0.714
 Vibration    27          0.864              1.230              0.636
 Vibration    28          0.888              1.177              0.580
 Vibration    29          0.891              1.170              0.573
 Vibration    30          0.926              1.096              0.504
 Vibration    31          0.963              1.022              0.442
 Vibration    32          0.981              0.989              0.416

 Optimization completed.
    -- Stationary point found.
 Normal termination of Gaussian 09 at Fri Feb 22 14:46:29 2019.
