 Gaussian 09, Revision E.01,

 ----------------------------------------------------------------------
 # M062X/Gen 6D SCF=Tight INT(grid=ultrafine) OPT IOP(2/17=4) SCRF=(SMD
 ,Solvent=n-Pentadecane) maxdisk=3221225472
 ----------------------------------------------------------------------

 ---------------------------------------
 34TFM_EtO.M062X_6-31pGd_opt_Pentadecane
 ---------------------------------------
 Symbolic Z-matrix:
 Charge = -1 Multiplicity = 1

 SCF Done:  E(RM062X) =  -1515.70437102     A.U. after   16 cycles
 SCF Done:  E(RM062X) =  -1515.74430354     A.U. after   13 cycles
 SCF Done:  E(RM062X) =  -1515.75255082     A.U. after   15 cycles
 SCF Done:  E(RM062X) =  -1515.75580770     A.U. after   15 cycles
 SCF Done:  E(RM062X) =  -1515.75732507     A.U. after   15 cycles
 SCF Done:  E(RM062X) =  -1515.76118948     A.U. after   15 cycles
 SCF Done:  E(RM062X) =  -1515.76109709     A.U. after   15 cycles
 SCF Done:  E(RM062X) =  -1515.76236479     A.U. after   11 cycles
 SCF Done:  E(RM062X) =  -1515.76261734     A.U. after   13 cycles
 SCF Done:  E(RM062X) =  -1515.76215481     A.U. after   12 cycles
 SCF Done:  E(RM062X) =  -1515.76624419     A.U. after   10 cycles
 SCF Done:  E(RM062X) =  -1515.76624602     A.U. after   10 cycles
 SCF Done:  E(RM062X) =  -1515.76624665     A.U. after   11 cycles
 SCF Done:  E(RM062X) =  -1515.76624646     A.U. after   10 cycles
 SCF Done:  E(RM062X) =  -1515.76624669     A.U. after    9 cycles
 Optimization completed.
    -- Stationary point found.
 Normal termination of Gaussian 09 at Tue Feb 19 14:13:58 2019.
 Gaussian 09:  ES64L-G09RevE.01 30-Nov-2015

 ----------------------------------------------------------------------
 # M062X/Gen 6D SCF=Tight INT(grid=ultrafine) OPT IOP(2/17=4) SCRF=(SMD
 ,Solvent=n-Pentadecane) Freq=Noraman maxdisk=3221225472 geom=check gue
 ss=read IOP(2/17=4)
 ----------------------------------------------------------------------

 ---------------------------------------
 34TFM_EtO.M062X_6-31pGd_opt_Pentadecane
 ---------------------------------------
 Structure from the checkpoint file:  "34TFM_EtO.M062X_6-31pGd_opt_Pentadecane.chk"
 Charge = -1 Multiplicity = 1

 SCF Done:  E(RM062X) =  -1515.76624669     A.U. after    1 cycles
 SCF Done:  E(RM062X) =  -1515.76624666     A.U. after    9 cycles
 SCF Done:  E(RM062X) =  -1515.76624663     A.U. after   10 cycles
 SCF Done:  E(RM062X) =  -1515.76624670     A.U. after    8 cycles
 Optimization completed.
    -- Stationary point found.
 Normal termination of Gaussian 09 at Tue Feb 19 14:34:01 2019.

 ----------------------------------------------------------------------
 #N Geom=AllCheck Guess=TCheck SCRF=Check Test GenChk RM062X/ChkBas Fre
 q
 ----------------------------------------------------------------------

 Structure from the checkpoint file:  "34TFM_EtO.M062X_6-31pGd_opt_Pentadecane.chk"
 ---------------------------------------
 34TFM_EtO.M062X_6-31pGd_opt_Pentadecane
 ---------------------------------------
 Charge = -1 Multiplicity = 1

                         Standard orientation:
 ---------------------------------------------------------------------
 Center     Atomic      Atomic             Coordinates (Angstroms)
 Number     Number       Type             X           Y           Z
 ---------------------------------------------------------------------
      1          6           0       -6.360035   -3.366230   -0.017634
      2          6           0       -5.463674   -2.131813    0.012538
      3          6           0       -3.987694   -2.510490    0.005121
      4          7           0       -3.168195   -1.316525    0.033693
      5          6           0       -1.821694   -1.416378    0.026708
      6          8           0       -1.221824   -2.494886    0.003325
      7          7           0       -1.184706   -0.179843    0.049213
      8          6           0        0.168209    0.064041    0.040505
      9          6           0        1.164475   -0.933954    0.018079
     10          6           0        0.576187    1.411628    0.057740
     11          6           0        1.919425    1.742257    0.043875
     12          6           0        2.913089    0.760468    0.012270
     13          6           0        2.509490   -0.585708    0.008789
     14          1           0       -7.418831   -3.087460   -0.012026
     15          1           0       -6.178766   -4.008277    0.852504
     16          1           0       -6.177124   -3.966043   -0.917069
     17          1           0       -5.675171   -1.529668    0.904315
     18          1           0       -5.673243   -1.488351   -0.850258
     19          1           0       -3.753641   -3.104210   -0.889548
     20          1           0       -3.755159   -3.145198    0.871497
     21          1           0       -3.635341   -0.391610    0.047207
     22          1           0       -1.785255    0.673657    0.058991
     23          1           0        0.865973   -1.972616    0.011574
     24          1           0       -0.184530    2.187756    0.077733
     25          1           0        2.204730    2.788799    0.052941
     26          6           0        3.503026   -1.722225   -0.043835
     27          6           0        4.346630    1.205481    0.019403
     28          9           0        5.123620    0.508130   -0.831360
     29          9           0        4.928952    1.108322    1.235240
     30          9           0        4.466134    2.501225   -0.338732
     31          9           0        2.956003   -2.893656    0.320831
     32          9           0        4.555889   -1.525472    0.772700
     33          9           0        4.002122   -1.910446   -1.282716
     34          8           0       -4.532635    1.159569    0.045709
     35          8           0       -2.556502    2.219138    0.043169
     36          6           0       -3.818035    2.194206    0.012817
     37          6           0       -4.560418    3.534318   -0.076621
     38          6           0       -3.662458    4.763695   -0.100480
     39          1           0       -5.256757    3.574472    0.770048
     40          1           0       -5.187618    3.491635   -0.975827
     41          1           0       -3.052902    4.821231    0.806366
     42          1           0       -4.256616    5.682424   -0.174445
     43          1           0       -2.975372    4.728782   -0.951285
 ---------------------------------------------------------------------

 SCF Done:  E(RM062X) =  -1515.76624670     A.U. after    2 cycles

 The electronic state is 1-A.
 Alpha  occ. eigenvalues --  -25.26297 -25.26093 -25.26046 -25.26043 -25.25742
 Alpha  occ. eigenvalues --  -25.25682 -19.54905 -19.53052 -19.52509 -14.72672
 Alpha  occ. eigenvalues --  -14.70678 -10.77355 -10.77292 -10.61845 -10.57581
 Alpha  occ. eigenvalues --  -10.56642 -10.55158 -10.54166 -10.52927 -10.52210
 Alpha  occ. eigenvalues --  -10.51680 -10.51275 -10.49443 -10.49386 -10.48213
 Alpha  occ. eigenvalues --  -10.47951  -1.42914  -1.42461  -1.33636  -1.33264
 Alpha  occ. eigenvalues --   -1.33140  -1.32924  -1.11064  -1.09099  -0.99847
 Alpha  occ. eigenvalues --   -0.99238  -0.96398  -0.93599  -0.84858  -0.84404
 Alpha  occ. eigenvalues --   -0.82522  -0.80289  -0.77626  -0.75972  -0.72769
 Alpha  occ. eigenvalues --   -0.69178  -0.68530  -0.66663  -0.65449  -0.65191
 Alpha  occ. eigenvalues --   -0.64947  -0.64484  -0.63544  -0.63059  -0.61199
 Alpha  occ. eigenvalues --   -0.59093  -0.56473  -0.53925  -0.53656  -0.53521
 Alpha  occ. eigenvalues --   -0.52887  -0.52770  -0.51895  -0.50347  -0.50130
 Alpha  occ. eigenvalues --   -0.49717  -0.49417  -0.48465  -0.48372  -0.47348
 Alpha  occ. eigenvalues --   -0.47123  -0.46972  -0.46898  -0.46836  -0.46252
 Alpha  occ. eigenvalues --   -0.46185  -0.45123  -0.44476  -0.43401  -0.43244
 Alpha  occ. eigenvalues --   -0.42334  -0.41319  -0.39936  -0.39860  -0.39686
 Alpha  occ. eigenvalues --   -0.38891  -0.37529  -0.37255  -0.36159  -0.35085
 Alpha  occ. eigenvalues --   -0.34876  -0.34120  -0.33134  -0.28483  -0.28341
 Alpha  occ. eigenvalues --   -0.25974  -0.25426  -0.25262  -0.24693  -0.21733
 Alpha virt. eigenvalues --    0.03705   0.05446   0.06149   0.06751   0.07043
 Alpha virt. eigenvalues --    0.07431   0.07899   0.08225   0.08374   0.08932
 Alpha virt. eigenvalues --    0.09267   0.09705   0.10083   0.10413   0.10520

 Mulliken charges:
               1
     1  C   -0.807863
     2  C   -0.361119
     3  C   -0.123661
     4  N   -0.777514
     5  C    0.783603
     6  O   -0.625096
     7  N   -0.656820
     8  C   -0.511804
     9  C   -0.012954
    10  C   -0.188422
    11  C    0.167834
    12  C   -0.968297
    13  C   -0.993516
    14  H    0.208620
    15  H    0.207962
    16  H    0.208071
    17  H    0.237224
    18  H    0.238065
    19  H    0.219025
    20  H    0.218908
    21  H    0.527744
    22  H    0.515820
    23  H    0.306164
    24  H    0.283806
    25  H    0.245337
    26  C    1.558688
    27  C    1.702871
    28  F   -0.293745
    29  F   -0.267416
    30  F   -0.338854
    31  F   -0.329720
    32  F   -0.291780
    33  F   -0.263454
    34  O   -0.653833
    35  O   -0.699932
    36  C    0.668518
    37  C   -0.466054
    38  C   -0.724026
    39  H    0.218136
    40  H    0.218468
    41  H    0.216316
    42  H    0.187319
    43  H    0.217380
 Sum of Mulliken charges =  -1.00000

 Dipole moment (field-independent basis, Debye):
    X=              2.2162    Y=              0.4607    Z=             -0.1068  Tot=              2.2661
 Quadrupole moment (field-independent basis, Debye-Ang):
   XX=           -223.0805   YY=           -176.7439   ZZ=           -156.6328
   XY=             11.8968   XZ=              0.6826   YZ=             -0.3739

  Exact polarizability: 322.570  18.729 254.750  -0.144   0.425 152.986
 Approx polarizability: 297.514  12.380 260.420  -0.627   0.754 181.556

                      1                      2                      3
                      A                      A                      A
 Frequencies --     18.1351                19.7771                34.5821
 Red. masses --      6.8701                 6.2482                 3.1079
 Frc consts  --      0.0013                 0.0014                 0.0022
 IR Inten    --      0.2522                 0.1413                 0.1651

                      4                      5                      6
                      A                      A                      A
 Frequencies --     42.4610                49.0882                54.3665
 Red. masses --      2.8032                 6.3367                 9.4784
 Frc consts  --      0.0030                 0.0090                 0.0165
 IR Inten    --      0.6503                 1.1621                 1.8223

                      7                      8                      9
                      A                      A                      A
 Frequencies --     58.5389                64.4613                69.8139
 Red. masses --      4.9801                 4.2501                 2.5956
 Frc consts  --      0.0101                 0.0104                 0.0075
 IR Inten    --      2.2290                 1.2844                 0.3758

                     10                     11                     12
                      A                      A                      A
 Frequencies --     80.0099                83.1874                91.4506
 Red. masses --      3.6141                 5.0613                18.3403
 Frc consts  --      0.0136                 0.0206                 0.0904
 IR Inten    --      0.4520                 6.0192                 0.0282

                     13                     14                     15
                      A                      A                      A
 Frequencies --     97.2406               119.1698               120.6535
 Red. masses --      4.6775                 7.1875                 5.0954
 Frc consts  --      0.0261                 0.0601                 0.0437
 IR Inten    --      7.7809                13.3688                 3.2184

                     16                     17                     18
                      A                      A                      A
 Frequencies --    143.1960               167.3185               174.9758
 Red. masses --      6.5668                14.9898                 3.5496
 Frc consts  --      0.0793                 0.2472                 0.0640
 IR Inten    --      0.1183                 2.3632                 4.8762

                     19                     20                     21
                      A                      A                      A
 Frequencies --    180.6627               206.9147               235.1049
 Red. masses --      5.5049                 7.7271                 2.2437
 Frc consts  --      0.1059                 0.1949                 0.0731
 IR Inten    --     26.7656                 1.2324                 0.1329

                     22                     23                     24
                      A                      A                      A
 Frequencies --    237.2608               237.8373               239.6931
 Red. masses --      1.1702                 4.2574                 2.0884
 Frc consts  --      0.0388                 0.1419                 0.0707
 IR Inten    --      0.5199                 8.4458                 1.9519

                     25                     26                     27
                      A                      A                      A
 Frequencies --    266.8002               305.8242               323.0325
 Red. masses --      7.2771                 4.1545                 8.1664
 Frc consts  --      0.3052                 0.2289                 0.5021
 IR Inten    --      2.0010                20.9828                 0.7998

                     28                     29                     30
                      A                      A                      A
 Frequencies --    339.9780               341.2712               385.9032
 Red. masses --     12.8032                 4.9011                 8.2042
 Frc consts  --      0.8719                 0.3363                 0.7199
 IR Inten    --      0.3478                14.2510                 2.3369

                     31                     32                     33
                      A                      A                      A
 Frequencies --    398.9219               420.0931               462.9518
 Red. masses --      5.9672                 5.5123                 7.5194
 Frc consts  --      0.5595                 0.5732                 0.9495
 IR Inten    --     36.0910                 1.3853                 7.6127

                     34                     35                     36
                      A                      A                      A
 Frequencies --    476.8493               508.2030               523.0153
 Red. masses --      5.9376                 5.9013                 5.7104
 Frc consts  --      0.7955                 0.8980                 0.9203
 IR Inten    --      1.2285                25.9135                21.7613

                     37                     38                     39
                      A                      A                      A
 Frequencies --    536.6091               569.8994               585.9880
 Red. masses --     11.8364                14.4973                 1.9642
 Frc consts  --      2.0081                 2.7742                 0.3974
 IR Inten    --      2.0785                 3.8250                 0.6182

                     40                     41                     42
                      A                      A                      A
 Frequencies --    604.2978               619.6358               655.4931
 Red. masses --      5.9727                 8.6436                 6.7268
 Frc consts  --      1.2851                 1.9553                 1.7029
 IR Inten    --     10.4452                 0.8419                22.1737

                     43                     44                     45
                      A                      A                      A
 Frequencies --    660.0538               661.3821               678.1877
 Red. masses --      5.2151                 5.4874                 9.5264
 Frc consts  --      1.3387                 1.4142                 2.5815
 IR Inten    --     50.2500                 0.9031                20.5546

                     46                     47                     48
                      A                      A                      A
 Frequencies --    754.4550               759.6660               766.8050
 Red. masses --      1.4862                 3.2084                 2.3613
 Frc consts  --      0.4984                 1.0909                 0.8181
 IR Inten    --     23.9828                 3.0867                30.0664

                     49                     50                     51
                      A                      A                      A
 Frequencies --    769.7497               775.0373               795.3888
 Red. masses --      8.6716                10.0539                 7.7856
 Frc consts  --      3.0272                 3.5582                 2.9020
 IR Inten    --      4.5265                 1.5973                 6.2139

                     52                     53                     54
                      A                      A                      A
 Frequencies --    809.3292               827.2807               873.7574
 Red. masses --      1.3692                 1.4477                 1.4168
 Frc consts  --      0.5284                 0.5838                 0.6373
 IR Inten    --      4.8274                12.0836                18.3801

                     55                     56                     57
                      A                      A                      A
 Frequencies --    891.5358               901.9407               926.2053
 Red. masses --      3.9985                 1.1559                 1.8313
 Frc consts  --      1.8725                 0.5540                 0.9256
 IR Inten    --     43.8835                 5.5884                 7.6556

                     58                     59                     60
                      A                      A                      A
 Frequencies --    943.8685               959.1296               965.0660
 Red. masses --      1.4025                 4.4044                 1.1086
 Frc consts  --      0.7362                 2.3872                 0.6083
 IR Inten    --     44.1960                 7.5262               102.9312

                     61                     62                     63
                      A                      A                      A
 Frequencies --   1011.8385              1028.3351              1045.4532
 Red. masses --      1.3041                 1.6627                 6.5151
 Frc consts  --      0.7867                 1.0359                 4.1954
 IR Inten    --      1.2963                 4.0345                37.1824

                     64                     65                     66
                      A                      A                      A
 Frequencies --   1052.0779              1084.0628              1109.7166
 Red. masses --      4.1946                 2.6350                 1.7684
 Frc consts  --      2.7355                 1.8245                 1.2831
 IR Inten    --     53.9466                21.8153                 0.6338

                     67                     68                     69
                      A                      A                      A
 Frequencies --   1115.0516              1131.4125              1157.3821
 Red. masses --      2.3570                 3.2877                 2.4657
 Frc consts  --      1.7267                 2.4796                 1.9460
 IR Inten    --      6.8081               222.4706                31.2737

                     70                     71                     72
                      A                      A                      A
 Frequencies --   1165.9324              1174.9408              1182.1317
 Red. masses --      4.9603                 5.8936                 1.5892
 Frc consts  --      3.9729                 4.7936                 1.3084
 IR Inten    --     82.1096                32.7483                 0.0547

                     73                     74                     75
                      A                      A                      A
 Frequencies --   1190.1814              1200.3410              1217.5276
 Red. masses --      4.0926                11.5413                 1.7561
 Frc consts  --      3.4157                 9.7974                 1.5338
 IR Inten    --      9.6252               579.6319               259.4971

                     76                     77                     78
                      A                      A                      A
 Frequencies --   1231.8623              1274.0199              1291.8643
 Red. masses --      9.1326                 1.1961                 1.1803
 Frc consts  --      8.1653                 1.1439                 1.1606
 IR Inten    --    309.0361                 0.0160                 0.0860

                     79                     80                     81
                      A                      A                      A
 Frequencies --   1303.1043              1310.3743              1324.9786
 Red. masses --      2.1038                 1.4870                 3.5870
 Frc consts  --      2.1048                 1.5043                 3.7102
 IR Inten    --    138.4084               388.5559               263.2630

                     82                     83                     84
                      A                      A                      A
 Frequencies --   1327.1140              1334.6855              1339.7711
 Red. masses --      1.0909                 2.3298                 1.6595
 Frc consts  --      1.1320                 2.4453                 1.7550
 IR Inten    --      4.7786               105.5526                36.7968

                     85                     86                     87
                      A                      A                      A
 Frequencies --   1352.3430              1374.5752              1409.5865
 Red. masses --      2.8161                 2.7814                 4.8543
 Frc consts  --      3.0344                 3.0963                 5.6827
 IR Inten    --   1139.3877               130.0889               407.1529

                     88                     89                     90
                      A                      A                      A
 Frequencies --   1425.3345              1425.8365              1435.8906
 Red. masses --      1.4580                 1.3415                 1.4711
 Frc consts  --      1.7452                 1.6069                 1.7871
 IR Inten    --      8.3122                36.3062                 6.1492

                     91                     92                     93
                      A                      A                      A
 Frequencies --   1473.8885              1488.0389              1490.1834
 Red. masses --      2.6620                 1.4696                 4.4025
 Frc consts  --      3.4071                 1.9172                 5.7601
 IR Inten    --    339.5188                67.9304               158.7054

                     94                     95                     96
                      A                      A                      A
 Frequencies --   1507.8241              1513.0233              1519.3279
 Red. masses --      1.0665                 1.0411                 1.0395
 Frc consts  --      1.4286                 1.4042                 1.4138
 IR Inten    --      8.1122                 7.8360                 8.7306

                     97                     98                     99
                      A                      A                      A
 Frequencies --   1522.3563              1524.1662              1537.6884
 Red. masses --      1.1065                 1.0742                 1.0876
 Frc consts  --      1.5110                 1.4703                 1.5152
 IR Inten    --     66.9159                 0.9450                 9.9144

                    100                    101                    102
                      A                      A                      A
 Frequencies --   1579.2022              1619.3497              1637.8360
 Red. masses --      3.0035                 3.1060                 2.6857
 Frc consts  --      4.4132                 4.7989                 4.2447
 IR Inten    --    104.2325                63.5782                92.8440

                    103                    104                    105
                      A                      A                      A
 Frequencies --   1678.6431              1682.5131              1714.0801
 Red. masses --      6.1129                 2.8258                 3.3872
 Frc consts  --     10.1488                 4.7130                 5.8635
 IR Inten    --   1233.2867               221.9451               429.4253

                    106                    107                    108
                      A                      A                      A
 Frequencies --   1785.3439              3034.1150              3048.3477
 Red. masses --      2.9977                 1.0979                 1.0583
 Frc consts  --      5.6297                 5.9551                 5.7941
 IR Inten    --    474.6781              1256.6163               140.3141

                    109                    110                    111
                      A                      A                      A
 Frequencies --   3069.3337              3073.6370              3074.8923
 Red. masses --      1.0368                 1.0440                 1.1050
 Frc consts  --      5.7549                 5.8108                 6.1557
 IR Inten    --     50.4757                63.0551                30.6700

                    112                    113                    114
                      A                      A                      A
 Frequencies --   3080.1744              3084.9873              3112.9176
 Red. masses --      1.0563                 1.0604                 1.1011
 Frc consts  --      5.9048                 5.9462                 6.2868
 IR Inten    --      9.1887                27.3943                14.1854

                    115                    116                    117
                      A                      A                      A
 Frequencies --   3118.6395              3141.3153              3141.7593
 Red. masses --      1.1033                 1.1039                 1.0986
 Frc consts  --      6.3222                 6.4180                 6.3893
 IR Inten    --      1.5367                76.6975                50.8940

                    118                    119                    120
                      A                      A                      A
 Frequencies --   3145.5760              3160.8542              3192.1316
 Red. masses --      1.1012                 1.1027                 1.0922
 Frc consts  --      6.4199                 6.4914                 6.5572
 IR Inten    --     36.6733                44.0669              1739.4862

                    121                    122                    123
                      A                      A                      A
 Frequencies --   3226.4621              3253.2066              3300.9348
 Red. masses --      1.0926                 1.0932                 1.0915
 Frc consts  --      6.7011                 6.8168                 7.0072
 IR Inten    --     40.5113                 1.7794                26.1364

 - Thermochemistry -
 -------------------
 Temperature   298.150 Kelvin.  Pressure   1.00000 Atm.
 Atom     1 has atomic number  6 and mass  12.00000

 Molecular mass:   387.11434 amu.
 Principal axes and moments of inertia in atomic units:
                           1         2         3
     Eigenvalues --  6545.78168********************
           X            0.99997   0.00791   0.00048
           Y           -0.00790   0.99997  -0.00134
           Z           -0.00049   0.00134   1.00000
 This molecule is an asymmetric top.
 Rotational symmetry number  1.
 Warning -- assumption of classical behavior for rotation
           may cause significant error
 Rotational temperatures (Kelvin)      0.01323     0.00440     0.00339
 Rotational constants (GHZ):           0.27571     0.09165     0.07065
 Zero-point vibrational energy     845939.1 (Joules/Mol)
                                  202.18431 (Kcal/Mol)
 Warning -- explicit consideration of  41 degrees of freedom as
           vibrations may cause significant error
 Vibrational temperatures:     26.09    28.45    49.76    61.09    70.63
          (Kelvin)             78.22    84.22    92.75   100.45   115.12
                              119.69   131.58   139.91   171.46   173.59
                              206.03   240.73   251.75   259.93   297.70
                              338.26   341.36   342.19   344.86   383.87
                              440.01   464.77   489.15   491.01   555.23
                              573.96   604.42   666.08   686.08   731.19
                              752.50   772.06   819.96   843.11   869.45
                              891.52   943.11   949.67   951.58   975.76
                             1085.49  1092.99  1103.26  1107.50  1115.10
                             1144.39  1164.44  1190.27  1257.14  1282.72
                             1297.69  1332.60  1358.01  1379.97  1388.51
                             1455.81  1479.54  1504.17  1513.70  1559.72
                             1596.63  1604.31  1627.85  1665.21  1677.51
                             1690.48  1700.82  1712.40  1727.02  1751.75
                             1772.37  1833.03  1858.70  1874.87  1885.33
                             1906.35  1909.42  1920.31  1927.63  1945.72
                             1977.70  2028.08  2050.74  2051.46  2065.92
                             2120.59  2140.95  2144.04  2169.42  2176.90
                             2185.97  2190.33  2192.93  2212.39  2272.12
                             2329.88  2356.48  2415.19  2420.76  2466.18
                             2568.71  4365.41  4385.89  4416.08  4422.27
                             4424.08  4431.68  4438.60  4478.79  4487.02
                             4519.65  4520.29  4525.78  4547.76  4592.76
                             4642.15  4680.63  4749.30

 Zero-point correction=                           0.322201 (Hartree/Particle)
 Thermal correction to Energy=                    0.348885
 Thermal correction to Enthalpy=                  0.349829
 Thermal correction to Gibbs Free Energy=         0.260805
 Sum of electronic and zero-point Energies=          -1515.444045
 Sum of electronic and thermal Energies=             -1515.417362
 Sum of electronic and thermal Enthalpies=           -1515.416418
 Sum of electronic and thermal Free Energies=        -1515.505442

                     E (Thermal)             CV                S
                      KCal/Mol        Cal/Mol-Kelvin    Cal/Mol-Kelvin
 Total                  218.928             94.183            187.367
 Electronic               0.000              0.000              0.000
 Translational            0.889              2.981             43.753
 Rotational               0.889              2.981             36.441
 Vibrational            217.151             88.222            107.173
 Vibration     1          0.593              1.986              6.829
 Vibration     2          0.593              1.986              6.656
 Vibration     3          0.594              1.983              5.548
 Vibration     4          0.595              1.980              5.141
 Vibration     5          0.595              1.978              4.854
 Vibration     6          0.596              1.976              4.652
 Vibration     7          0.596              1.974              4.506
 Vibration     8          0.597              1.971              4.316
 Vibration     9          0.598              1.969              4.159
 Vibration    10          0.600              1.963              3.891
 Vibration    11          0.600              1.961              3.814
 Vibration    12          0.602              1.955              3.629
 Vibration    13          0.603              1.951              3.509
 Vibration    14          0.609              1.933              3.114
 Vibration    15          0.609              1.932              3.090
 Vibration    16          0.616              1.910              2.761
 Vibration    17          0.624              1.883              2.465
 Vibration    18          0.627              1.873              2.381
 Vibration    19          0.630              1.866              2.322
 Vibration    20          0.641              1.830              2.071
 Vibration    21          0.655              1.787              1.840
 Vibration    22          0.656              1.784              1.823
 Vibration    23          0.656              1.783              1.819
 Vibration    24          0.657              1.780              1.805
 Vibration    25          0.672              1.734              1.617
 Vibration    26          0.696              1.663              1.385
 Vibration    27          0.708              1.629              1.295
 Vibration    28          0.720              1.596              1.212
 Vibration    29          0.721              1.593              1.206
 Vibration    30          0.755              1.500              1.016
 Vibration    31          0.765              1.472              0.967
 Vibration    32          0.783              1.427              0.892
 Vibration    33          0.821              1.332              0.758
 Vibration    34          0.833              1.301              0.719
 Vibration    35          0.863              1.232              0.638
 Vibration    36          0.878              1.199              0.603
 Vibration    37          0.892              1.169              0.573
 Vibration    38          0.926              1.096              0.504
 Vibration    39          0.943              1.062              0.474
 Vibration    40          0.963              1.023              0.442
 Vibration    41          0.980              0.990              0.417

 Optimization completed.
    -- Stationary point found.
 Normal termination of Gaussian 09 at Tue Feb 19 15:45:11 2019.
