 Gaussian 09, Revision E.01,

 ----------------------------------------------------------------------
 # M062X/Gen 6D SCF=Tight INT(grid=ultrafine) OPT IOP(2/17=4) SCRF=(SMD
 ,Solvent=h2o) maxdisk=3221225472
 ----------------------------------------------------------------------

 ---------------------------------
 34TFM_EtO.M062X_6-31pGd_opt_water
 ---------------------------------
 Symbolic Z-matrix:
 Charge = -1 Multiplicity = 1

 SCF Done:  E(RM062X) =  -1515.74226358     A.U. after   15 cycles
 SCF Done:  E(RM062X) =  -1515.77971728     A.U. after   13 cycles
 SCF Done:  E(RM062X) =  -1515.78430493     A.U. after   14 cycles
 SCF Done:  E(RM062X) =  -1515.78651163     A.U. after   15 cycles
 SCF Done:  E(RM062X) =  -1515.78922861     A.U. after   15 cycles
 SCF Done:  E(RM062X) =  -1515.79096377     A.U. after   15 cycles
 SCF Done:  E(RM062X) =  -1515.79160096     A.U. after   12 cycles
 SCF Done:  E(RM062X) =  -1515.79049815     A.U. after   14 cycles
 SCF Done:  E(RM062X) =  -1515.79179267     A.U. after    9 cycles
 SCF Done:  E(RM062X) =  -1515.79203374     A.U. after   11 cycles
 SCF Done:  E(RM062X) =  -1515.79589510     A.U. after   10 cycles
 SCF Done:  E(RM062X) =  -1515.79589577     A.U. after   10 cycles
 SCF Done:  E(RM062X) =  -1515.79589631     A.U. after   10 cycles
 SCF Done:  E(RM062X) =  -1515.79589656     A.U. after    9 cycles
 SCF Done:  E(RM062X) =  -1515.79589664     A.U. after    9 cycles
 SCF Done:  E(RM062X) =  -1515.79589668     A.U. after    9 cycles
 SCF Done:  E(RM062X) =  -1515.79589667     A.U. after    8 cycles
 SCF Done:  E(RM062X) =  -1515.79589667     A.U. after    7 cycles
 Optimization completed.
    -- Stationary point found.
 Normal termination of Gaussian 09 at Tue Feb 19 13:29:41 2019.
 Gaussian 09:  ES64L-G09RevE.01 30-Nov-2015

 ----------------------------------------------------------------------
 # M062X/Gen 6D SCF=Tight INT(grid=ultrafine) OPT IOP(2/17=4) SCRF=(SMD
 ,Solvent=h2o) Freq=Noraman maxdisk=3221225472 geom=check guess=read IO
 P(2/17=4)
 ----------------------------------------------------------------------

 ---------------------------------
 34TFM_EtO.M062X_6-31pGd_opt_water
 ---------------------------------
 Structure from the checkpoint file:  "34TFM_EtO.M062X_6-31pGd_opt_water.chk"
 Charge = -1 Multiplicity = 1

 SCF Done:  E(RM062X) =  -1515.79589667     A.U. after    2 cycles
 Optimization completed.
    -- Stationary point found.
 Normal termination of Gaussian 09 at Tue Feb 19 13:31:28 2019.

 ----------------------------------------------------------------------
 #N Geom=AllCheck Guess=TCheck SCRF=Check Test GenChk RM062X/ChkBas Fre
 q
 ----------------------------------------------------------------------

 Structure from the checkpoint file:  "34TFM_EtO.M062X_6-31pGd_opt_water.chk"
 ---------------------------------
 34TFM_EtO.M062X_6-31pGd_opt_water
 ---------------------------------
 Charge = -1 Multiplicity = 1

                         Standard orientation:
 ---------------------------------------------------------------------
 Center     Atomic      Atomic             Coordinates (Angstroms)
 Number     Number       Type             X           Y           Z
 ---------------------------------------------------------------------
      1          6           0       -6.260356   -3.450423    0.071968
      2          6           0       -5.392317   -2.198988   -0.010769
      3          6           0       -3.920933   -2.537045    0.181149
      4          7           0       -3.112798   -1.327958    0.110740
      5          6           0       -1.772958   -1.388094    0.222520
      6          8           0       -1.159936   -2.451566    0.425594
      7          7           0       -1.144895   -0.160120    0.111352
      8          6           0        0.217130    0.095841    0.113536
      9          6           0        1.208763   -0.892817   -0.005965
     10          6           0        0.617812    1.437034    0.209908
     11          6           0        1.959696    1.778599    0.181850
     12          6           0        2.950192    0.803060    0.060808
     13          6           0        2.553134   -0.540834   -0.023479
     14          1           0       -7.317560   -3.206001   -0.067987
     15          1           0       -6.152980   -3.937822    1.047381
     16          1           0       -5.976987   -4.175065   -0.699518
     17          1           0       -5.700326   -1.475686    0.754416
     18          1           0       -5.527344   -1.712552   -0.984768
     19          1           0       -3.597143   -3.248277   -0.589544
     20          1           0       -3.770554   -3.021075    1.153592
     21          1           0       -3.563789   -0.450461   -0.181675
     22          1           0       -1.756626    0.673677    0.114625
     23          1           0        0.924535   -1.931134   -0.089092
     24          1           0       -0.135564    2.214145    0.303384
     25          1           0        2.238598    2.824027    0.255852
     26          6           0        3.544954   -1.669496   -0.180071
     27          6           0        4.385052    1.251293    0.055314
     28          9           0        5.133750    0.605101   -0.859489
     29          9           0        4.996725    1.071848    1.246127
     30          9           0        4.495052    2.562577   -0.223812
     31          9           0        3.007834   -2.861977    0.125663
     32          9           0        4.621810   -1.523798    0.613436
     33          9           0        4.002477   -1.775160   -1.443919
     34          8           0       -4.451831    1.078364   -0.764712
     35          8           0       -2.777140    2.172952    0.230635
     36          6           0       -3.931877    2.129278   -0.283044
     37          6           0       -4.771860    3.401676   -0.340888
     38          6           0       -4.126211    4.637160    0.270149
     39          1           0       -5.724329    3.176433    0.153566
     40          1           0       -5.015233    3.573123   -1.396497
     41          1           0       -3.902044    4.483787    1.330335
     42          1           0       -4.797256    5.497980    0.187798
     43          1           0       -3.190465    4.888672   -0.238626
 ---------------------------------------------------------------------

 SCF Done:  E(RM062X) =  -1515.79589667     A.U. after    1 cycles

 The electronic state is 1-A.
 Alpha  occ. eigenvalues --  -25.30988 -25.30929 -25.30824 -25.30726 -25.30643
 Alpha  occ. eigenvalues --  -25.30381 -19.61942 -19.60716 -19.60290 -14.79134
 Alpha  occ. eigenvalues --  -14.77299 -10.82235 -10.82047 -10.68677 -10.65097
 Alpha  occ. eigenvalues --  -10.62099 -10.60242 -10.59273 -10.57710 -10.57225
 Alpha  occ. eigenvalues --  -10.57122 -10.56657 -10.53863 -10.53644 -10.52785
 Alpha  occ. eigenvalues --  -10.52612  -1.47756  -1.47221  -1.38449  -1.38086
 Alpha  occ. eigenvalues --   -1.37950  -1.37672  -1.17692  -1.16543  -1.06759
 Alpha  occ. eigenvalues --   -1.05852  -1.02527  -0.98931  -0.90050  -0.89485
 Alpha  occ. eigenvalues --   -0.87204  -0.85741  -0.82655  -0.80980  -0.77572
 Alpha  occ. eigenvalues --   -0.74283  -0.73544  -0.72228  -0.70354  -0.70052
 Alpha  occ. eigenvalues --   -0.69739  -0.69270  -0.68552  -0.67895  -0.66899
 Alpha  occ. eigenvalues --   -0.64712  -0.62352  -0.59531  -0.58680  -0.58433
 Alpha  occ. eigenvalues --   -0.58402  -0.57611  -0.57527  -0.55504  -0.55411
 Alpha  occ. eigenvalues --   -0.54924  -0.54236  -0.53630  -0.53195  -0.53114
 Alpha  occ. eigenvalues --   -0.52789  -0.52477  -0.52405  -0.51807  -0.51758
 Alpha  occ. eigenvalues --   -0.51565  -0.50754  -0.50121  -0.49729  -0.48645
 Alpha  occ. eigenvalues --   -0.47260  -0.46410  -0.46028  -0.44944  -0.44833
 Alpha  occ. eigenvalues --   -0.44268  -0.42792  -0.41715  -0.41398  -0.39686
 Alpha  occ. eigenvalues --   -0.39496  -0.39396  -0.38590  -0.35671  -0.33844
 Alpha  occ. eigenvalues --   -0.33351  -0.32848  -0.32474  -0.32143  -0.27741
 Alpha virt. eigenvalues --   -0.01463   0.00231   0.01907   0.02834   0.03041
 Alpha virt. eigenvalues --    0.03654   0.03703   0.04199   0.04401   0.04958
 Alpha virt. eigenvalues --    0.05186   0.05602   0.05897   0.06193   0.06835

 Mulliken charges:
               1
     1  C   -0.835799
     2  C   -0.353976
     3  C   -0.161099
     4  N   -0.755046
     5  C    0.818558
     6  O   -0.739055
     7  N   -0.663272
     8  C   -0.432893
     9  C   -0.117601
    10  C   -0.067664
    11  C   -0.203515
    12  C   -0.712439
    13  C   -0.934284
    14  H    0.223023
    15  H    0.221243
    16  H    0.221493
    17  H    0.237454
    18  H    0.236509
    19  H    0.236997
    20  H    0.238397
    21  H    0.520573
    22  H    0.527624
    23  H    0.296731
    24  H    0.276360
    25  H    0.281914
    26  C    1.703648
    27  C    1.597910
    28  F   -0.299857
    29  F   -0.269848
    30  F   -0.333549
    31  F   -0.331330
    32  F   -0.293148
    33  F   -0.261739
    34  O   -0.772874
    35  O   -0.772074
    36  C    0.766908
    37  C   -0.512355
    38  C   -0.737120
    39  H    0.244815
    40  H    0.246053
    41  H    0.222962
    42  H    0.218828
    43  H    0.222537
 Sum of Mulliken charges =  -1.00000

 Dipole moment (field-independent basis, Debye):
    X=              2.9488    Y=              1.6022    Z=              0.2447  Tot=              3.3649
 Quadrupole moment (field-independent basis, Debye-Ang):
   XX=           -214.2922   YY=           -168.0454   ZZ=           -158.7739
   XY=             13.2478   XZ=             -4.9934   YZ=              1.9097

  Exact polarizability: 358.978  20.551 308.170   6.366   5.403 208.568
 Approx polarizability: 287.691  10.639 257.705   4.845   4.316 184.326

                      1                      2                      3
                      A                      A                      A
 Frequencies --     11.6791                20.2052                24.2545
 Red. masses --      7.7327                 5.2348                 4.3047
 Frc consts  --      0.0006                 0.0013                 0.0015
 IR Inten    --      0.2406                 0.5870                 1.1910

                      4                      5                      6
                      A                      A                      A
 Frequencies --     36.4068                45.0738                48.5755
 Red. masses --      2.7889                 4.0272                 3.2098
 Frc consts  --      0.0022                 0.0048                 0.0045
 IR Inten    --      0.9662                 4.8790                 8.6400

                      7                      8                      9
                      A                      A                      A
 Frequencies --     53.6252                59.8130                68.9029
 Red. masses --      2.7675                 4.2512                 7.8905
 Frc consts  --      0.0047                 0.0090                 0.0221
 IR Inten    --      6.2460                 1.6727                 0.4166

                     10                     11                     12
                      A                      A                      A
 Frequencies --     72.7654                83.7477                92.7385
 Red. masses --     10.0807                 4.3122                14.3387
 Frc consts  --      0.0314                 0.0178                 0.0727
 IR Inten    --      1.1850                 8.4769                 1.6898

                     13                     14                     15
                      A                      A                      A
 Frequencies --     93.4811               105.4894               110.8360
 Red. masses --      6.0446                 4.7250                 7.8873
 Frc consts  --      0.0311                 0.0310                 0.0571
 IR Inten    --     12.8529                10.2512                18.8909

                     16                     17                     18
                      A                      A                      A
 Frequencies --    141.4468               160.3990               168.1430
 Red. masses --      7.6397                 4.4463                 5.8023
 Frc consts  --      0.0901                 0.0674                 0.0967
 IR Inten    --      1.4028                19.4000                11.1308

                     19                     20                     21
                      A                      A                      A
 Frequencies --    171.7827               205.4159               232.5735
 Red. masses --      5.9236                 8.0452                 6.5776
 Frc consts  --      0.1030                 0.2000                 0.2096
 IR Inten    --      7.3906                 0.2374                 8.3253

                     22                     23                     24
                      A                      A                      A
 Frequencies --    237.2604               237.7079               244.3471
 Red. masses --      1.2301                 6.0613                 1.0947
 Frc consts  --      0.0408                 0.2018                 0.0385
 IR Inten    --      0.2971                 8.9074                 1.7993

                     25                     26                     27
                      A                      A                      A
 Frequencies --    267.4905               302.9695               320.0581
 Red. masses --      7.2497                 4.0259                 7.7978
 Frc consts  --      0.3056                 0.2177                 0.4706
 IR Inten    --      3.1142                13.8482                 0.2009

                     28                     29                     30
                      A                      A                      A
 Frequencies --    338.2482               343.7300               384.7777
 Red. masses --     14.5201                 4.6752                 8.1316
 Frc consts  --      0.9788                 0.3254                 0.7093
 IR Inten    --      1.5444                17.7879                 6.0267

                     31                     32                     33
                      A                      A                      A
 Frequencies --    396.6069               417.9243               461.3863
 Red. masses --      5.9630                 5.2335                 7.3326
 Frc consts  --      0.5526                 0.5386                 0.9197
 IR Inten    --     42.5774                 1.7800                 8.0779

                     34                     35                     36
                      A                      A                      A
 Frequencies --    476.0274               503.9531               518.9299
 Red. masses --      5.9731                 5.6786                 5.6402
 Frc consts  --      0.7975                 0.8497                 0.8949
 IR Inten    --      2.6614                25.4250                28.7962

                     37                     38                     39
                      A                      A                      A
 Frequencies --    534.7199               568.7299               581.6105
 Red. masses --     11.7781                14.3820                 1.9134
 Frc consts  --      1.9842                 2.7408                 0.3814
 IR Inten    --      3.6222                 2.4485                 2.2618

                     40                     41                     42
                      A                      A                      A
 Frequencies --    601.5137               617.8964               649.5608
 Red. masses --      5.4173                 8.2399                 2.6407
 Frc consts  --      1.1549                 1.8535                 0.6565
 IR Inten    --     24.3315                 0.2290               109.1456

                     43                     44                     45
                      A                      A                      A
 Frequencies --    653.4525               659.2496               671.2505
 Red. masses --      5.8144                 5.2822                 1.8650
 Frc consts  --      1.4628                 1.3526                 0.4951
 IR Inten    --     33.6219                 7.2189                99.9315

                     46                     47                     48
                      A                      A                      A
 Frequencies --    676.9479               758.3770               759.9857
 Red. masses --      5.5832                 1.5466                 3.5618
 Frc consts  --      1.5075                 0.5241                 1.2121
 IR Inten    --     60.8827                35.0494                 2.9919

                     49                     50                     51
                      A                      A                      A
 Frequencies --    765.3989               769.8196               774.6917
 Red. masses --      2.4083                 5.7081                 7.4432
 Frc consts  --      0.8313                 1.9931                 2.6319
 IR Inten    --      8.3203                 9.9891                11.3287

                     52                     53                     54
                      A                      A                      A
 Frequencies --    794.8429               818.3310               825.1300
 Red. masses --      4.5911                 1.4724                 1.3731
 Frc consts  --      1.7089                 0.5810                 0.5508
 IR Inten    --     15.3659                 0.4282               203.7201

                     55                     56                     57
                      A                      A                      A
 Frequencies --    872.9503               888.0935               905.3036
 Red. masses --      1.4729                 3.7681                 1.1525
 Frc consts  --      0.6613                 1.7510                 0.5565
 IR Inten    --    113.2881                36.9856                 0.9193

                     58                     59                     60
                      A                      A                      A
 Frequencies --    913.5488               927.5714               958.3770
 Red. masses --      1.5349                 1.7761                 4.8479
 Frc consts  --      0.7547                 0.9003                 2.6235
 IR Inten    --     46.4141                 3.6064                12.3315

                     61                     62                     63
                      A                      A                      A
 Frequencies --   1009.2947              1027.9347              1045.2234
 Red. masses --      1.3418                 1.6476                 6.3818
 Frc consts  --      0.8054                 1.0258                 4.1078
 IR Inten    --      3.4265                13.2994                62.8866

                     64                     65                     66
                      A                      A                      A
 Frequencies --   1050.6307              1084.2531              1109.2210
 Red. masses --      4.3360                 2.5700                 1.7903
 Frc consts  --      2.8199                 1.7801                 1.2978
 IR Inten    --     40.3567                20.2180                 2.2203

                     67                     68                     69
                      A                      A                      A
 Frequencies --   1112.7425              1125.9399              1153.1819
 Red. masses --      2.3539                 3.4258                 2.5030
 Frc consts  --      1.7172                 2.5588                 1.9611
 IR Inten    --     14.8453               265.9306                41.3561

                     70                     71                     72
                      A                      A                      A
 Frequencies --   1155.8992              1163.5130              1170.9366
 Red. masses --     10.3336                 3.5393                 8.7133
 Frc consts  --      8.1347                 2.8230                 7.0388
 IR Inten    --    156.6187               181.2181               689.5916

                     73                     74                     75
                      A                      A                      A
 Frequencies --   1177.3998              1180.3931              1205.3402
 Red. masses --      3.4104                 1.7171                 1.7661
 Frc consts  --      2.7855                 1.4096                 1.5118
 IR Inten    --     19.2892                 2.5972               349.4856

                     76                     77                     78
                      A                      A                      A
 Frequencies --   1211.4155              1279.2615              1291.5379
 Red. masses --      9.8916                 1.1949                 1.1710
 Frc consts  --      8.5527                 1.1521                 1.1509
 IR Inten    --    402.5230                 0.6592                 1.6955

                     79                     80                     81
                      A                      A                      A
 Frequencies --   1295.9680              1302.3196              1317.7728
 Red. masses --      2.2865                 1.6073                 2.7242
 Frc consts  --      2.2626                 1.6061                 2.7872
 IR Inten    --    318.8526               542.2094               315.6760

                     82                     83                     84
                      A                      A                      A
 Frequencies --   1326.0960              1331.7785              1337.6508
 Red. masses --      1.0813                 2.3893                 1.7353
 Frc consts  --      1.1204                 2.4969                 1.8294
 IR Inten    --      3.2162               158.4261                76.8958

                     85                     86                     87
                      A                      A                      A
 Frequencies --   1346.5304              1364.0685              1392.3686
 Red. masses --      2.4185                 2.5186                 5.3478
 Frc consts  --      2.5836                 2.7611                 6.1085
 IR Inten    --    966.9454               132.7495               430.3657

                     88                     89                     90
                      A                      A                      A
 Frequencies --   1420.2236              1420.6124              1430.0557
 Red. masses --      1.2914                 1.3085                 1.6896
 Frc consts  --      1.5347                 1.5559                 2.0359
 IR Inten    --      1.7306                33.7186                23.9126

                     91                     92                     93
                      A                      A                      A
 Frequencies --   1456.1619              1474.2623              1481.2393
 Red. masses --      1.3205                 2.8602                 5.1249
 Frc consts  --      1.6498                 3.6627                 6.6250
 IR Inten    --    162.9210               246.8546               245.7766

                     94                     95                     96
                      A                      A                      A
 Frequencies --   1489.4625              1500.8186              1502.0642
 Red. masses --      1.0588                 1.0395                 1.0399
 Frc consts  --      1.3840                 1.3796                 1.3823
 IR Inten    --      6.4868                10.9317                11.6207

                     97                     98                     99
                      A                      A                      A
 Frequencies --   1508.3937              1511.7771              1530.0757
 Red. masses --      1.1278                 1.0827                 1.0933
 Frc consts  --      1.5119                 1.4580                 1.5080
 IR Inten    --     83.5222                 2.0568                40.8355

                    100                    101                    102
                      A                      A                      A
 Frequencies --   1557.2144              1571.0268              1605.5200
 Red. masses --      7.2185                 2.7701                 2.8504
 Frc consts  --     10.3131                 4.0282                 4.3291
 IR Inten    --    954.3787               119.9493               322.7506

                    103                    104                    105
                      A                      A                      A
 Frequencies --   1611.9389              1661.3226              1698.5936
 Red. masses --      2.0771                 8.9200                 5.6186
 Frc consts  --      3.1799                14.5051                 9.5512
 IR Inten    --   1682.8524               191.4275                85.7209

                    106                    107                    108
                      A                      A                      A
 Frequencies --   1719.0616              3068.6309              3075.9082
 Red. masses --      2.1732                 1.0594                 1.0507
 Frc consts  --      3.7839                 5.8774                 5.8570
 IR Inten    --    677.2032                29.6037                23.8753

                    109                    110                    111
                      A                      A                      A
 Frequencies --   3077.1700              3083.6254              3085.0518
 Red. masses --      1.0452                 1.0420                 1.0560
 Frc consts  --      5.8312                 5.8377                 5.9219
 IR Inten    --    118.0328                57.3126                 9.0749

                    112                    113                    114
                      A                      A                      A
 Frequencies --   3100.8646              3120.4074              3121.0266
 Red. masses --      1.1032                 1.1063                 1.1015
 Frc consts  --      6.2500                 6.3465                 6.3218
 IR Inten    --      8.8490                59.1018                 7.9990

                    115                    116                    117
                      A                      A                      A
 Frequencies --   3146.0559              3154.0247              3155.8269
 Red. masses --      1.1039                 1.1024                 1.1022
 Frc consts  --      6.4372                 6.4616                 6.4673
 IR Inten    --     94.9617                54.2070                48.1655

                    118                    119                    120
                      A                      A                      A
 Frequencies --   3159.1455              3219.1467              3234.4514
 Red. masses --      1.1036                 1.0894                 1.0925
 Frc consts  --      6.4891                 6.6515                 6.7339
 IR Inten    --     57.2956              1124.0304                 9.6566

                    121                    122                    123
                      A                      A                      A
 Frequencies --   3259.6828              3308.2614              3316.5642
 Red. masses --      1.0942                 1.0918                 1.0872
 Frc consts  --      6.8501                 7.0403                 7.0461
 IR Inten    --      0.0928                27.1319              1530.9488

 - Thermochemistry -
 -------------------
 Temperature   298.150 Kelvin.  Pressure   1.00000 Atm.
 Atom     1 has atomic number  6 and mass  12.00000

 Molecular mass:   387.11434 amu.
 Principal axes and moments of inertia in atomic units:
                           1         2         3
     Eigenvalues --  6500.02970********************
           X            0.99998   0.00624   0.00005
           Y           -0.00624   0.99998  -0.00027
           Z           -0.00005   0.00027   1.00000
 This molecule is an asymmetric top.
 Rotational symmetry number  1.
 Warning -- assumption of classical behavior for rotation
           may cause significant error
 Rotational temperatures (Kelvin)      0.01333     0.00430     0.00336
 Rotational constants (GHZ):           0.27765     0.08957     0.06997
 Zero-point vibrational energy     842233.6 (Joules/Mol)
                                  201.29867 (Kcal/Mol)
 Warning -- explicit consideration of  41 degrees of freedom as
           vibrations may cause significant error
 Vibrational temperatures:     16.80    29.07    34.90    52.38    64.85
          (Kelvin)             69.89    77.15    86.06    99.14   104.69
                              120.49   133.43   134.50   151.78   159.47
                              203.51   230.78   241.92   247.16   295.55
                              334.62   341.36   342.01   351.56   384.86
                              435.90   460.49   486.66   494.55   553.61
                              570.63   601.30   663.83   684.90   725.08
                              746.62   769.34   818.27   836.81   865.44
                              889.01   934.57   940.17   948.51   965.78
                              973.98  1091.13  1093.45  1101.24  1107.60
                             1114.61  1143.60  1177.39  1187.18  1255.98
                             1277.77  1302.53  1314.39  1334.57  1378.89
                             1452.15  1478.97  1503.84  1511.62  1560.00
                             1595.92  1600.99  1619.97  1659.17  1663.08
                             1674.03  1684.71  1694.01  1698.32  1734.21
                             1742.95  1840.57  1858.23  1864.61  1873.75
                             1895.98  1907.95  1916.13  1924.58  1937.35
                             1962.59  2003.31  2043.38  2043.94  2057.53
                             2095.09  2121.13  2131.17  2143.00  2159.34
                             2161.13  2170.24  2175.11  2201.43  2240.48
                             2260.35  2309.98  2319.22  2390.27  2443.89
                             2473.34  4415.07  4425.54  4427.36  4436.64
                             4438.70  4461.45  4489.56  4490.46  4526.47
                             4537.93  4540.53  4545.30  4631.63  4653.65
                             4689.95  4759.84  4771.79

 Zero-point correction=                           0.320790 (Hartree/Particle)
 Thermal correction to Energy=                    0.347802
 Thermal correction to Enthalpy=                  0.348746
 Thermal correction to Gibbs Free Energy=         0.257870
 Sum of electronic and zero-point Energies=          -1515.475107
 Sum of electronic and thermal Energies=             -1515.448095
 Sum of electronic and thermal Enthalpies=           -1515.447151
 Sum of electronic and thermal Free Energies=        -1515.538027

                     E (Thermal)             CV                S
                      KCal/Mol        Cal/Mol-Kelvin    Cal/Mol-Kelvin
 Total                  218.249             95.029            191.264
 Electronic               0.000              0.000              0.000
 Translational            0.889              2.981             43.753
 Rotational               0.889              2.981             36.467
 Vibrational            216.471             89.068            111.045
 Vibration     1          0.593              1.987              7.703
 Vibration     2          0.593              1.986              6.614
 Vibration     3          0.593              1.985              6.251
 Vibration     4          0.594              1.982              5.446
 Vibration     5          0.595              1.979              5.023
 Vibration     6          0.595              1.978              4.875
 Vibration     7          0.596              1.976              4.679
 Vibration     8          0.597              1.973              4.463
 Vibration     9          0.598              1.969              4.184
 Vibration    10          0.599              1.967              4.077
 Vibration    11          0.601              1.960              3.801
 Vibration    12          0.602              1.954              3.601
 Vibration    13          0.602              1.954              3.586
 Vibration    14          0.605              1.945              3.350
 Vibration    15          0.607              1.941              3.254
 Vibration    16          0.615              1.912              2.784
 Vibration    17          0.622              1.891              2.545
 Vibration    18          0.625              1.882              2.456
 Vibration    19          0.626              1.877              2.416
 Vibration    20          0.640              1.832              2.084
 Vibration    21          0.653              1.791              1.859
 Vibration    22          0.656              1.784              1.823
 Vibration    23          0.656              1.783              1.820
 Vibration    24          0.660              1.772              1.771
 Vibration    25          0.673              1.733              1.612
 Vibration    26          0.694              1.668              1.400
 Vibration    27          0.706              1.635              1.310
 Vibration    28          0.719              1.599              1.220
 Vibration    29          0.722              1.588              1.195
 Vibration    30          0.754              1.503              1.020
 Vibration    31          0.763              1.477              0.975
 Vibration    32          0.781              1.431              0.899
 Vibration    33          0.819              1.336              0.762
 Vibration    34          0.833              1.303              0.721
 Vibration    35          0.859              1.241              0.648
 Vibration    36          0.874              1.208              0.612
 Vibration    37          0.890              1.173              0.577
 Vibration    38          0.925              1.099              0.507
 Vibration    39          0.938              1.071              0.482
 Vibration    40          0.960              1.029              0.447
 Vibration    41          0.978              0.994              0.420

 Normal termination of Gaussian 09 at Tue Feb 19 14:44:17 2019.
