 Gaussian 09, Revision E.01,

 ----------------------------------------------------------------------
 # M062X/Gen 6D SCF=Tight INT(grid=ultrafine) OPT IOP(2/17=4) SCRF=(SMD
 ,Solvent=h2o) maxdisk=3221225472
 ----------------------------------------------------------------------

 ---------------------------------------
 4SulfOxyCF3_EtO.M062X_6-31pGd_opt_water
 ---------------------------------------
 Symbolic Z-matrix:
 Charge = -1 Multiplicity = 1

 SCF Done:  E(RM062X) =  -1727.21772886     A.U. after   16 cycles
 SCF Done:  E(RM062X) =  -1727.27464702     A.U. after   14 cycles
 SCF Done:  E(RM062X) =  -1727.30979390     A.U. after   14 cycles
 SCF Done:  E(RM062X) =  -1727.31410361     A.U. after   13 cycles
 SCF Done:  E(RM062X) =  -1727.31658186     A.U. after   13 cycles
 SCF Done:  E(RM062X) =  -1727.32009085     A.U. after   15 cycles
 SCF Done:  E(RM062X) =  -1727.32117252     A.U. after   14 cycles
 SCF Done:  E(RM062X) =  -1727.32131383     A.U. after   15 cycles
 SCF Done:  E(RM062X) =  -1727.32197408     A.U. after   14 cycles
 SCF Done:  E(RM062X) =  -1727.32210617     A.U. after   13 cycles
 SCF Done:  E(RM062X) =  -1727.32222056     A.U. after   10 cycles
 SCF Done:  E(RM062X) =  -1727.32222133     A.U. after    9 cycles
 SCF Done:  E(RM062X) =  -1727.32222188     A.U. after    9 cycles
 SCF Done:  E(RM062X) =  -1727.32222206     A.U. after    9 cycles
 SCF Done:  E(RM062X) =  -1727.32222216     A.U. after    9 cycles
 SCF Done:  E(RM062X) =  -1727.32222217     A.U. after    9 cycles
 SCF Done:  E(RM062X) =  -1727.32222219     A.U. after    8 cycles
 SCF Done:  E(RM062X) =  -1727.32222217     A.U. after    8 cycles
 Optimization completed.
    -- Stationary point found.

 1\1\GINC-R3711\FOpt\RM062X\Gen\C14H18F3N2O5S1(1-)\ROOT\19-Feb-2019\0\\
 # M062X/Gen 6D SCF=Tight INT(grid=ultrafine) OPT IOP(2/17=4) SCRF=(SMD
 ,Solvent=h2o) maxdisk=3221225472\\4SulfOxyCF3_EtO.M062X_6-31pGd_opt_wa
 ter\\-1,1\C,-2.1536142262,2.1967989739,-0.219191744\C,-0.7915750904,1.
 5842693725,0.0911322835\C,0.3239841986,2.5980562047,-0.1178786092\N,1.
 6177519853,1.9998787961,0.1806302128\C,2.7491334743,2.7128973702,0.042
 9592822\O,2.7564314342,3.8993642514,-0.3281157483\N,3.9016701645,2.004
 7964498,0.3515220982\C,5.2103843388,2.4393976498,0.2921658274\C,5.6084

 Normal termination of Gaussian 09 at Tue Feb 19 13:25:11 2019.
 Gaussian 09:  ES64L-G09RevE.01 30-Nov-2015

 ----------------------------------------------------------------------
 # M062X/Gen 6D SCF=Tight INT(grid=ultrafine) OPT IOP(2/17=4) SCRF=(SMD
 ,Solvent=h2o) Freq=Noraman maxdisk=3221225472 geom=check guess=read IO
 P(2/17=4)
 ----------------------------------------------------------------------

 ---------------------------------------
 4SulfOxyCF3_EtO.M062X_6-31pGd_opt_water
 ---------------------------------------
 Structure from the checkpoint file:  "4SulfOxyCF3_EtO.M062X_6-31pGd_opt_water.chk"
 Charge = -1 Multiplicity = 1

 SCF Done:  E(RM062X) =  -1727.32222217     A.U. after    2 cycles
 Optimization completed.
    -- Stationary point found.

 1\1\GINC-R3711\FOpt\RM062X\Gen\C14H18F3N2O5S1(1-)\ROOT\19-Feb-2019\0\\
 # M062X/Gen 6D SCF=Tight INT(grid=ultrafine) OPT IOP(2/17=4) SCRF=(SMD
 ,Solvent=h2o) Freq=Noraman maxdisk=3221225472 geom=check guess=read IO
 P(2/17=4)\\4SulfOxyCF3_EtO.M062X_6-31pGd_opt_water\\-1,1\C,-2.15361422
 62,2.1967989739,-0.219191744\C,-0.7915750904,1.5842693725,0.0911322835
 \C,0.3239841986,2.5980562047,-0.1178786092\N,1.6177519853,1.9998787961
 ,0.1806302128\C,2.7491334743,2.7128973702,0.0429592822\O,2.7564314342,
 3.8993642514,-0.3281157483\N,3.9016701645,2.0047964498,0.3515220982\C,

 Normal termination of Gaussian 09 at Tue Feb 19 13:27:08 2019.

 ----------------------------------------------------------------------
 #N Geom=AllCheck Guess=TCheck SCRF=Check Test GenChk RM062X/ChkBas Fre
 q
 ----------------------------------------------------------------------

 Structure from the checkpoint file:  "4SulfOxyCF3_EtO.M062X_6-31pGd_opt_water.chk"
 ---------------------------------------
 4SulfOxyCF3_EtO.M062X_6-31pGd_opt_water
 ---------------------------------------
 Charge = -1 Multiplicity = 1

                         Standard orientation:
 ---------------------------------------------------------------------
 Center     Atomic      Atomic             Coordinates (Angstroms)
 Number     Number       Type             X           Y           Z
 ---------------------------------------------------------------------
      1          6           0       -7.062557   -2.796054    0.468543
      2          6           0       -6.002669   -1.713067    0.294132
      3          6           0       -4.615294   -2.323223    0.156937
      4          7           0       -3.613970   -1.278695   -0.007590
      5          6           0       -2.312028   -1.591898   -0.126848
      6          8           0       -1.897481   -2.763843   -0.114628
      7          7           0       -1.478625   -0.491130   -0.263628
      8          6           0       -0.103783   -0.473004   -0.384516
      9          6           0        0.713144   -1.621083   -0.449799
     10          6           0        0.497780    0.805435   -0.448778
     11          6           0        1.865362    0.942985   -0.566419
     12          6           0        2.655691   -0.211634   -0.629160
     13          6           0        2.087507   -1.486159   -0.567589
     14          1           0       -8.060118   -2.357896    0.567844
     15          1           0       -6.866522   -3.394883    1.364957
     16          1           0       -7.075899   -3.473454   -0.392584
     17          1           0       -6.015753   -1.032209    1.154137
     18          1           0       -6.223728   -1.110621   -0.595546
     19          1           0       -4.587635   -2.999860   -0.706213
     20          1           0       -4.379744   -2.921438    1.045878
     21          1           0       -3.925538   -0.297258   -0.015208
     22          1           0       -1.934643    0.436845   -0.232838
     23          1           0        0.276191   -2.607454   -0.411237
     24          1           0       -0.131399    1.689280   -0.405316
     25          1           0        2.315402    1.929999   -0.613328
     26         16           0        4.386830   -0.054736   -0.720558
     27          8           0        4.768433    1.254796   -1.247483
     28          8           0        4.998571   -1.274451   -1.245838
     29          1           0        2.712922   -2.372621   -0.617207
     30          6           0        4.924473   -0.004732    1.059271
     31          9           0        6.247397    0.100261    1.105047
     32          9           0        4.378003    1.041301    1.667536
     33          9           0        4.549335   -1.118358    1.677684
     34          8           0       -4.701725    1.399506    0.024054
     35          8           0       -2.594324    2.123470   -0.148143
     36          6           0       -3.834687    2.322959   -0.004531
     37          6           0       -4.345129    3.753256    0.142119
     38          6           0       -3.271429    4.831387    0.114228
     39          1           0       -4.913181    3.794288    1.079217
     40          1           0       -5.076776    3.912924   -0.659155
     41          1           0       -2.550863    4.694035    0.926395
     42          1           0       -3.722788    5.822212    0.226833
     43          1           0       -2.719736    4.816988   -0.830809
 ---------------------------------------------------------------------

 SCF Done:  E(RM062X) =  -1727.32222217     A.U. after    1 cycles

 The electronic state is 1-A.
 Alpha  occ. eigenvalues --  -90.17867 -25.33717 -25.33696 -25.33692 -19.67800
 Alpha  occ. eigenvalues --  -19.67798 -19.62036 -19.60702 -19.60291 -14.79530
 Alpha  occ. eigenvalues --  -14.77478 -10.84771 -10.68852 -10.65075 -10.62624
 Alpha  occ. eigenvalues --  -10.59944 -10.58566 -10.58533 -10.57270 -10.56660
 Alpha  occ. eigenvalues --  -10.56373 -10.53864 -10.53637 -10.52787 -10.52602
 Alpha  occ. eigenvalues --   -8.49298  -6.41464  -6.41419  -6.41327  -1.50657
 Alpha  occ. eigenvalues --   -1.41350  -1.41337  -1.26631  -1.17850  -1.16551
 Alpha  occ. eigenvalues --   -1.16072  -1.06811  -1.06090  -1.02613  -0.98221
 Alpha  occ. eigenvalues --   -0.90259  -0.87819  -0.86932  -0.85758  -0.85708
 Alpha  occ. eigenvalues --   -0.79960  -0.77070  -0.73647  -0.72876  -0.72772
 Alpha  occ. eigenvalues --   -0.72376  -0.72124  -0.68321  -0.67874  -0.66422
 Alpha  occ. eigenvalues --   -0.63142  -0.62783  -0.61194  -0.60450  -0.59905
 Alpha  occ. eigenvalues --   -0.58756  -0.57528  -0.56753  -0.56527  -0.56293
 Alpha  occ. eigenvalues --   -0.55458  -0.54421  -0.54103  -0.53654  -0.53219
 Alpha  occ. eigenvalues --   -0.52783  -0.52532  -0.51983  -0.51381  -0.50700
 Alpha  occ. eigenvalues --   -0.49781  -0.48182  -0.47417  -0.46272  -0.46151
 Alpha  occ. eigenvalues --   -0.45000  -0.44292  -0.43889  -0.43751  -0.42545
 Alpha  occ. eigenvalues --   -0.41731  -0.41582  -0.41363  -0.39829  -0.39594
 Alpha  occ. eigenvalues --   -0.39497  -0.39015  -0.38729  -0.35588  -0.33889
 Alpha  occ. eigenvalues --   -0.33126  -0.32855  -0.32360  -0.32318  -0.27991
 Alpha virt. eigenvalues --   -0.02771   0.00440   0.01485   0.02540   0.03190
 Alpha virt. eigenvalues --    0.03216   0.03521   0.04055   0.04170   0.04356
 Alpha virt. eigenvalues --    0.04802   0.05345   0.05470   0.06521   0.06576

 Mulliken charges:
               1
     1  C   -0.820011
     2  C   -0.361918
     3  C   -0.202157
     4  N   -0.796837
     5  C    0.902809
     6  O   -0.735250
     7  N   -0.651915
     8  C    0.007799
     9  C   -0.260754
    10  C   -0.411927
    11  C   -0.031882
    12  C   -0.424450
    13  C   -0.319564
    14  H    0.223076
    15  H    0.221439
    16  H    0.221589
    17  H    0.236829
    18  H    0.237242
    19  H    0.241031
    20  H    0.240367
    21  H    0.526579
    22  H    0.532276
    23  H    0.287559
    24  H    0.282590
    25  H    0.290376
    26  S    1.173667
    27  O   -0.534671
    28  O   -0.544330
    29  H    0.287969
    30  C    0.850810
    31  F   -0.274757
    32  F   -0.251881
    33  F   -0.254021
    34  O   -0.767992
    35  O   -0.800528
    36  C    0.788296
    37  C   -0.522937
    38  C   -0.740647
    39  H    0.245372
    40  H    0.245927
    41  H    0.222828
    42  H    0.218963
    43  H    0.223035
 Sum of Mulliken charges =  -1.00000

 Dipole moment (field-independent basis, Debye):
    X=              2.4843    Y=              0.0006    Z=              3.0534  Tot=              3.9363
 Quadrupole moment (field-independent basis, Debye-Ang):
   XX=           -238.2024   YY=           -174.0182   ZZ=           -162.2857
   XY=              7.1697   XZ=             12.4627   YZ=              0.2164

  Exact polarizability: 423.864  17.180 318.775 -16.314  -1.812 219.943
 Approx polarizability: 325.802   6.647 274.127 -12.753  -1.414 192.418

                      1                      2                      3
                      A                      A                      A
 Frequencies --     11.6458                19.6917                29.5831
 Red. masses --      8.1295                 5.8688                 3.8517
 Frc consts  --      0.0006                 0.0013                 0.0020
 IR Inten    --      0.7565                 0.4762                 0.1400

                      4                      5                      6
                      A                      A                      A
 Frequencies --     37.3532                39.3047                43.1769
 Red. masses --      4.8091                 3.2340                 6.6217
 Frc consts  --      0.0040                 0.0029                 0.0073
 IR Inten    --      1.7601                 3.4012                 6.5635

                      7                      8                      9
                      A                      A                      A
 Frequencies --     47.7307                52.0288                59.0331
 Red. masses --      8.6248                 3.3741                 2.3753
 Frc consts  --      0.0116                 0.0054                 0.0049
 IR Inten    --      2.8806                 0.0397                 2.0066

                     10                     11                     12
                      A                      A                      A
 Frequencies --     64.4498                69.9149                73.0793
 Red. masses --      4.2584                 4.7414                 6.1559
 Frc consts  --      0.0104                 0.0137                 0.0194
 IR Inten    --      3.7520                 0.6628                 1.0514

                     13                     14                     15
                      A                      A                      A
 Frequencies --     84.6302               100.6614               121.6506
 Red. masses --      5.2327                 4.4254                 8.0768
 Frc consts  --      0.0221                 0.0264                 0.0704
 IR Inten    --     15.3666                22.5736                39.4149

                     16                     17                     18
                      A                      A                      A
 Frequencies --    148.1548               157.2379               173.5424
 Red. masses --      4.5610                 5.9667                 3.7638
 Frc consts  --      0.0590                 0.0869                 0.0668
 IR Inten    --     10.1457                10.2844                10.6186

                     19                     20                     21
                      A                      A                      A
 Frequencies --    187.0871               194.1659               223.2793
 Red. masses --     10.0519                11.1152                 5.1785
 Frc consts  --      0.2073                 0.2469                 0.1521
 IR Inten    --      9.4265                 2.2123                 6.2288

                     22                     23                     24
                      A                      A                      A
 Frequencies --    238.9108               243.5761               250.3868
 Red. masses --      1.1463                 1.0953                10.2038
 Frc consts  --      0.0385                 0.0383                 0.3769
 IR Inten    --      0.1275                 1.4093                15.5317

                     25                     26                     27
                      A                      A                      A
 Frequencies --    305.6913               308.7814               311.3518
 Red. masses --      4.8611                13.8965                 5.9641
 Frc consts  --      0.2676                 0.7807                 0.3406
 IR Inten    --      8.6679                 0.5219                 3.4532

                     28                     29                     30
                      A                      A                      A
 Frequencies --    329.3197               346.5966               352.2984
 Red. masses --      6.4019                 5.0212                 8.4585
 Frc consts  --      0.4091                 0.3554                 0.6185
 IR Inten    --      5.2076                29.6505                 4.8853

                     31                     32                     33
                      A                      A                      A
 Frequencies --    374.6817               419.8278               443.8489
 Red. masses --      7.9793                 3.0226                 7.9903
 Frc consts  --      0.6600                 0.3139                 0.9274
 IR Inten    --     26.7759                 0.1102                 6.6911

                     34                     35                     36
                      A                      A                      A
 Frequencies --    478.1243               508.7578               520.9180
 Red. masses --      5.5448                 3.2803                 5.6553
 Frc consts  --      0.7468                 0.5002                 0.9042
 IR Inten    --     71.7347                 7.2974                27.9894

                     37                     38                     39
                      A                      A                      A
 Frequencies --    524.3013               557.3892               567.6292
 Red. masses --      9.6570                17.1445                 8.7648
 Frc consts  --      1.5641                 3.1383                 1.6639
 IR Inten    --     32.7535                 0.0827               142.1842

                     40                     41                     42
                      A                      A                      A
 Frequencies --    581.5547               597.6210               632.3600
 Red. masses --      1.9040                10.2284                 7.1409
 Frc consts  --      0.3794                 2.1523                 1.6824
 IR Inten    --      0.7112               304.7993                 1.9212

                     43                     44                     45
                      A                      A                      A
 Frequencies --    655.1738               658.1452               710.8102
 Red. masses --      4.7148                 1.1713                 6.6328
 Frc consts  --      1.1924                 0.2989                 1.9745
 IR Inten    --     66.9877               183.3701               185.6706

                     46                     47                     48
                      A                      A                      A
 Frequencies --    726.2003               761.1502               776.0004
 Red. masses --      3.6415                 1.1849                 3.5864
 Frc consts  --      1.1315                 0.4045                 1.2724
 IR Inten    --      8.7625                17.0381                31.7097

                     49                     50                     51
                      A                      A                      A
 Frequencies --    779.1294               787.4606               817.3126
 Red. masses --      6.9058                11.8315                 1.3915
 Frc consts  --      2.4699                 4.3226                 0.5477
 IR Inten    --      4.6590                34.9635                 0.2989

                     52                     53                     54
                      A                      A                      A
 Frequencies --    823.1536               852.1032               861.7469
 Red. masses --      1.2146                 1.2314                 1.7274
 Frc consts  --      0.4849                 0.5268                 0.7558
 IR Inten    --    166.8169                28.7995               123.8239

                     55                     56                     57
                      A                      A                      A
 Frequencies --    872.0422               888.2320               906.8524
 Red. masses --      5.1001                 3.9002                 1.1539
 Frc consts  --      2.2851                 1.8130                 0.5591
 IR Inten    --     18.8938                29.4319                 1.4579

                     58                     59                     60
                      A                      A                      A
 Frequencies --    932.0563               993.8612              1007.7895
 Red. masses --      1.6657                 1.3113                 1.3453
 Frc consts  --      0.8526                 0.7631                 0.8050
 IR Inten    --      4.8157                 2.3533                 0.0631

                     61                     62                     63
                      A                      A                      A
 Frequencies --   1015.7356              1027.4049              1049.5907
 Red. masses --      3.6911                 1.6496                 4.3939
 Frc consts  --      2.2437                 1.0259                 2.8519
 IR Inten    --     46.6485                15.5392                34.8461

                     64                     65                     66
                      A                      A                      A
 Frequencies --   1081.9318              1084.5247              1109.2969
 Red. masses --      3.3143                 3.5235                 1.7920
 Frc consts  --      2.2858                 2.4418                 1.2992
 IR Inten    --     82.0622               145.8429                 2.0596

                     67                     68                     69
                      A                      A                      A
 Frequencies --   1113.0271              1135.4250              1146.8067
 Red. masses --      2.3548                 3.5100                 1.8488
 Frc consts  --      1.7188                 2.6661                 1.4326
 IR Inten    --     15.9906              1075.1530                24.1654

                     70                     71                     72
                      A                      A                      A
 Frequencies --   1160.5685              1176.6498              1180.8713
 Red. masses --      1.6025                 3.6316                 1.6102
 Frc consts  --      1.2717                 2.9624                 1.3229
 IR Inten    --     25.1234                 2.4282                 0.2038

                     73                     74                     75
                      A                      A                      A
 Frequencies --   1208.5653              1228.4686              1254.0881
 Red. masses --      1.6137                 4.0616                13.3021
 Frc consts  --      1.3887                 3.6114                12.3261
 IR Inten    --    125.7004               275.1975               266.6075

                     76                     77                     78
                      A                      A                      A
 Frequencies --   1255.1016              1281.1336              1291.4883
 Red. masses --     13.1724                 1.1928                 1.1691
 Frc consts  --     12.2256                 1.1534                 1.1489
 IR Inten    --    386.0323                 0.8246                 0.2896

                     79                     80                     81
                      A                      A                      A
 Frequencies --   1297.2377              1309.0761              1326.4886
 Red. masses --      1.8533                12.8166                 1.5910
 Frc consts  --      1.8375                12.9406                 1.6495
 IR Inten    --    772.5980               552.4256                39.8813

                     82                     83                     84
                      A                      A                      A
 Frequencies --   1328.7449              1339.1672              1340.3808
 Red. masses --      1.0800                 1.7260                 1.8363
 Frc consts  --      1.1234                 1.8238                 1.9438
 IR Inten    --      1.8063                74.2369                68.3155

                     85                     86                     87
                      A                      A                      A
 Frequencies --   1358.4212              1383.5369              1419.5725
 Red. masses --      1.8576                 4.7660                 1.3164
 Frc consts  --      2.0196                 5.3751                 1.5630
 IR Inten    --    192.6499               434.1272                30.0087

                     88                     89                     90
                      A                      A                      A
 Frequencies --   1420.8322              1431.8004              1456.1514
 Red. masses --      1.2820                 1.6949                 1.3353
 Frc consts  --      1.5249                 2.0472                 1.6682
 IR Inten    --     12.6811                47.7730               167.4338

                     91                     92                     93
                      A                      A                      A
 Frequencies --   1466.6018              1473.8661              1489.1525
 Red. masses --      3.5351                 2.7985                 1.0598
 Frc consts  --      4.4800                 3.5818                 1.3847
 IR Inten    --     49.9776               279.9350                 6.2430

                     94                     95                     96
                      A                      A                      A
 Frequencies --   1500.6737              1503.2644              1508.0483
 Red. masses --      1.0397                 1.0395                 1.1273
 Frc consts  --      1.3795                 1.3841                 1.5105
 IR Inten    --     11.1012                11.5423                86.4295

                     97                     98                     99
                      A                      A                      A
 Frequencies --   1511.7165              1530.1267              1544.9804
 Red. masses --      1.0826                 1.0930                 2.5420
 Frc consts  --      1.4577                 1.5077                 3.5749
 IR Inten    --      2.4007                37.3957               411.8794

                    100                    101                    102
                      A                      A                      A
 Frequencies --   1557.0150              1589.1834              1608.3466
 Red. masses --      6.3381                 3.0769                 2.0169
 Frc consts  --      9.0530                 4.5783                 3.0740
 IR Inten    --    602.5345              1041.1587              1601.5742

                    103                    104                    105
                      A                      A                      A
 Frequencies --   1649.5917              1678.3187              1723.9501
 Red. masses --      6.5626                 4.5145                 2.1144
 Frc consts  --     10.5215                 7.4922                 3.7024
 IR Inten    --    239.5802               192.6595               666.9160

                    106                    107                    108
                      A                      A                      A
 Frequencies --   3069.8107              3076.2657              3078.0311
 Red. masses --      1.0586                 1.0414                 1.0542
 Frc consts  --      5.8777                 5.8067                 5.8846
 IR Inten    --     26.5807                14.5236               129.7392

                    109                    110                    111
                      A                      A                      A
 Frequencies --   3083.2380              3084.5504              3101.3197
 Red. masses --      1.0469                 1.0510                 1.1044
 Frc consts  --      5.8639                 5.8914                 6.2586
 IR Inten    --     59.0926                 9.1142                 9.5420

                    112                    113                    114
                      A                      A                      A
 Frequencies --   3120.1957              3121.6839              3146.4743
 Red. masses --      1.1015                 1.1062                 1.1039
 Frc consts  --      6.3185                 6.3513                 6.4391
 IR Inten    --      8.2843                51.7892                96.4435

                    115                    116                    117
                      A                      A                      A
 Frequencies --   3153.8390              3155.5013              3158.8043
 Red. masses --      1.1024                 1.1022                 1.1036
 Frc consts  --      6.4606                 6.4662                 6.4881
 IR Inten    --     57.2447                48.9836                58.1030

                    118                    119                    120
                      A                      A                      A
 Frequencies --   3209.7937              3240.9743              3248.7234
 Red. masses --      1.0898                 1.0904                 1.0926
 Frc consts  --      6.6156                 6.7479                 6.7942
 IR Inten    --   1190.3268                 3.4276                 2.7534

                    121                    122                    123
                      A                      A                      A
 Frequencies --   3252.1322              3302.6020              3312.7411
 Red. masses --      1.0968                 1.0881                 1.0927
 Frc consts  --      6.8346                 6.9923                 7.0653
 IR Inten    --      2.7265              1628.8499                11.3397

 - Thermochemistry -
 -------------------
 Temperature   298.150 Kelvin.  Pressure   1.00000 Atm.
 Atom     1 has atomic number  6 and mass  12.00000

 Molecular mass:   383.08885 amu.
 Principal axes and moments of inertia in atomic units:
                           1         2         3
     Eigenvalues --  5671.27603********************
           X            0.99997   0.00348  -0.00695
           Y           -0.00350   0.99999  -0.00222
           Z            0.00694   0.00224   0.99997
 This molecule is an asymmetric top.
 Rotational symmetry number  1.
 Warning -- assumption of classical behavior for rotation
           may cause significant error
 Rotational temperatures (Kelvin)      0.01527     0.00368     0.00315
 Rotational constants (GHZ):           0.31822     0.07669     0.06572
 Zero-point vibrational energy     855952.9 (Joules/Mol)
                                  204.57766 (Kcal/Mol)
 Warning -- explicit consideration of  41 degrees of freedom as
           vibrations may cause significant error
 Vibrational temperatures:     16.76    28.33    42.56    53.74    56.55
          (Kelvin)             62.12    68.67    74.86    84.94    92.73
                              100.59   105.14   121.76   144.83   175.03
                              213.16   226.23   249.69   269.18   279.36
                              321.25   343.74   350.45   360.25   439.82
                              444.27   447.97   473.82   498.67   506.88
                              539.08   604.04   638.60   687.91   731.99
                              749.48   754.35   801.96   816.69   836.73
                              859.84   909.82   942.65   946.92  1022.70
                             1044.84  1095.12  1116.49  1120.99  1132.98
                             1175.93  1184.33  1225.98  1239.86  1254.67
                             1277.97  1304.76  1341.02  1429.94  1449.98
                             1461.42  1478.20  1510.13  1556.66  1560.39
                             1596.03  1601.40  1633.62  1650.00  1669.80
                             1692.93  1699.01  1738.85  1767.49  1804.35
                             1805.81  1843.26  1858.16  1866.43  1883.47
                             1908.52  1911.77  1926.76  1928.51  1954.46
                             1990.60  2042.45  2044.26  2060.04  2095.07
                             2110.11  2120.56  2142.56  2159.13  2162.86
                             2169.74  2175.02  2201.51  2222.88  2240.19
                             2286.48  2314.05  2373.39  2414.72  2480.38
                             4416.77  4426.05  4428.59  4436.09  4437.97
                             4462.10  4489.26  4491.40  4527.07  4537.67
                             4540.06  4544.81  4618.17  4663.03  4674.18
                             4679.09  4751.70  4766.29

 Zero-point correction=                           0.326015 (Hartree/Particle)
 Thermal correction to Energy=                    0.353086
 Thermal correction to Enthalpy=                  0.354030
 Thermal correction to Gibbs Free Energy=         0.262302
 Sum of electronic and zero-point Energies=          -1726.996207
 Sum of electronic and thermal Energies=             -1726.969136
 Sum of electronic and thermal Enthalpies=           -1726.968192
 Sum of electronic and thermal Free Energies=        -1727.059920

                     E (Thermal)             CV                S
                      KCal/Mol        Cal/Mol-Kelvin    Cal/Mol-Kelvin
 Total                  221.565             94.389            193.058
 Electronic               0.000              0.000              0.000
 Translational            0.889              2.981             43.722
 Rotational               0.889              2.981             36.548
 Vibrational            219.787             88.428            112.789
 Vibration     1          0.593              1.987              7.708
 Vibration     2          0.593              1.986              6.665
 Vibration     3          0.593              1.984              5.857
 Vibration     4          0.594              1.982              5.395
 Vibration     5          0.594              1.981              5.294
 Vibration     6          0.595              1.980              5.108
 Vibration     7          0.595              1.978              4.909
 Vibration     8          0.596              1.977              4.739
 Vibration     9          0.596              1.974              4.489
 Vibration    10          0.597              1.971              4.316
 Vibration    11          0.598              1.968              4.156
 Vibration    12          0.599              1.967              4.069
 Vibration    13          0.601              1.960              3.781
 Vibration    14          0.604              1.949              3.441
 Vibration    15          0.609              1.931              3.074
 Vibration    16          0.618              1.905              2.696
 Vibration    17          0.621              1.895              2.583
 Vibration    18          0.627              1.875              2.397
 Vibration    19          0.632              1.858              2.257
 Vibration    20          0.635              1.848              2.188
 Vibration    21          0.649              1.806              1.932
 Vibration    22          0.657              1.781              1.811
 Vibration    23          0.659              1.773              1.777
 Vibration    24          0.663              1.762              1.728
 Vibration    25          0.696              1.663              1.386
 Vibration    26          0.698              1.657              1.369
 Vibration    27          0.700              1.652              1.355
 Vibration    28          0.712              1.617              1.263
 Vibration    29          0.725              1.582              1.182
 Vibration    30          0.729              1.571              1.156
 Vibration    31          0.746              1.524              1.061
 Vibration    32          0.783              1.427              0.893
 Vibration    33          0.803              1.374              0.815
 Vibration    34          0.835              1.299              0.715
 Vibration    35          0.864              1.231              0.637
 Vibration    36          0.876              1.204              0.608
 Vibration    37          0.879              1.196              0.600
 Vibration    38          0.913              1.124              0.529
 Vibration    39          0.924              1.101              0.509
 Vibration    40          0.938              1.071              0.482
 Vibration    41          0.956              1.037              0.454

 1\1\GINC-R3711\Freq\RM062X\Gen\C14H18F3N2O5S1(1-)\ROOT\19-Feb-2019\0\\
 #N Geom=AllCheck Guess=TCheck SCRF=Check Test GenChk RM062X/ChkBas Fre
 q\\4SulfOxyCF3_EtO.M062X_6-31pGd_opt_water\\-1,1\C,-2.1536142262,2.196
 7989739,-0.219191744\C,-0.7915750904,1.5842693725,0.0911322835\C,0.323
 9841986,2.5980562047,-0.1178786092\N,1.6177519853,1.9998787961,0.18063
 02128\C,2.7491334743,2.7128973702,0.0429592822\O,2.7564314342,3.899364
 2514,-0.3281157483\N,3.9016701645,2.0047964498,0.3515220982\C,5.210384
 3388,2.4393976498,0.2921658274\C,5.6084648572,3.7483592219,-0.05115381

 Normal termination of Gaussian 09 at Tue Feb 19 14:45:20 2019.
