 Gaussian 09, Revision E.01,

 ----------------------------------------------------------------------
 # M062X/Gen 6D SCF=Tight INT(grid=ultrafine) OPT IOP(2/17=4) maxdisk=3
 221225472
 ----------------------------------------------------------------------

 ---------------------------------
 4SulfOxyCF3_EtO.M062X_6-31pGd_opt
 ---------------------------------
 Symbolic Z-matrix:
 Charge = -1 Multiplicity = 1

 SCF Done:  E(RM062X) =  -1727.12259045     A.U. after   18 cycles
 SCF Done:  E(RM062X) =  -1727.18483833     A.U. after   14 cycles
 SCF Done:  E(RM062X) =  -1727.23153181     A.U. after   15 cycles
 SCF Done:  E(RM062X) =  -1727.23869421     A.U. after   14 cycles
 SCF Done:  E(RM062X) =  -1727.24260504     A.U. after   14 cycles
 SCF Done:  E(RM062X) =  -1727.24649526     A.U. after   17 cycles
 SCF Done:  E(RM062X) =  -1727.24656511     A.U. after   16 cycles
 SCF Done:  E(RM062X) =  -1727.24840914     A.U. after   15 cycles
 SCF Done:  E(RM062X) =  -1727.24868688     A.U. after   13 cycles
 SCF Done:  E(RM062X) =  -1727.24875901     A.U. after   13 cycles
 SCF Done:  E(RM062X) =  -1727.24881235     A.U. after   11 cycles
 SCF Done:  E(RM062X) =  -1727.24881522     A.U. after   10 cycles
 SCF Done:  E(RM062X) =  -1727.24881818     A.U. after   10 cycles
 SCF Done:  E(RM062X) =  -1727.24881890     A.U. after   10 cycles
 SCF Done:  E(RM062X) =  -1727.24881912     A.U. after    9 cycles
 SCF Done:  E(RM062X) =  -1727.24881920     A.U. after    8 cycles
 Optimization completed.
    -- Stationary point found.

 1\1\GINC-R3722\FOpt\RM062X\Gen\C14H18F3N2O5S1(1-)\ROOT\19-Feb-2019\0\\
 # M062X/Gen 6D SCF=Tight INT(grid=ultrafine) OPT IOP(2/17=4) maxdisk=3
 221225472\\4SulfOxyCF3_EtO.M062X_6-31pGd_opt\\-1,1\C,-2.1691580428,2.1
 810960156,-0.1733823084\C,-0.7914550342,1.5709307017,0.0726737597\C,0.
 3177351597,2.6023057132,-0.1007763432\N,1.603202987,1.9855124683,0.139
 2993175\C,2.7344897808,2.7119458042,0.0223691841\O,2.7503030106,3.9055
 161652,-0.2836947561\N,3.8826325882,1.9603016066,0.2858758079\C,5.1809
 54749,2.3860311271,0.2540915383\C,5.5881145535,3.7075954017,-0.0510191

 Normal termination of Gaussian 09 at Tue Feb 19 12:28:38 2019.
 Gaussian 09:  ES64L-G09RevE.01 30-Nov-2015

 ----------------------------------------------------------------------
 # M062X/Gen 6D SCF=Tight INT(grid=ultrafine) OPT IOP(2/17=4) Freq=Nora
 man maxdisk=3221225472 geom=check guess=read IOP(2/17=4)
 ----------------------------------------------------------------------

 ---------------------------------
 4SulfOxyCF3_EtO.M062X_6-31pGd_opt
 ---------------------------------
 Structure from the checkpoint file:  "4SulfOxyCF3_EtO.M062X_6-31pGd_opt.chk"
 Charge = -1 Multiplicity = 1

 SCF Done:  E(RM062X) =  -1727.24881920     A.U. after    2 cycles
 SCF Done:  E(RM062X) =  -1727.24881919     A.U. after    9 cycles
 SCF Done:  E(RM062X) =  -1727.24881920     A.U. after    9 cycles
 Optimization completed.
    -- Stationary point found.

 1\1\GINC-R3722\FOpt\RM062X\Gen\C14H18F3N2O5S1(1-)\ROOT\19-Feb-2019\0\\
 # M062X/Gen 6D SCF=Tight INT(grid=ultrafine) OPT IOP(2/17=4) Freq=Nora
 man maxdisk=3221225472 geom=check guess=read IOP(2/17=4)\\4SulfOxyCF3_
 EtO.M062X_6-31pGd_opt\\-1,1\C,-2.1691518038,2.1811031174,-0.1737462307
 \C,-0.7914325814,1.570967769,0.0723154464\C,0.3176937215,2.6025303916,
 -0.1004481368\N,1.6031642402,1.9857265324,0.1395667749\C,2.7344558547,
 2.7121655484,0.0227499145\O,2.7503595045,3.9057755048,-0.2831510539\N,
 3.8825448409,1.960467313,0.2863370177\C,5.1808865899,2.3860737943,0.25

 Normal termination of Gaussian 09 at Tue Feb 19 12:37:25 2019.

 ----------------------------------------------------------------------
 #N Geom=AllCheck Guess=TCheck SCRF=Check Test GenChk RM062X/ChkBas Fre
 q
 ----------------------------------------------------------------------

 Structure from the checkpoint file:  "4SulfOxyCF3_EtO.M062X_6-31pGd_opt.chk"
 ---------------------------------
 4SulfOxyCF3_EtO.M062X_6-31pGd_opt
 ---------------------------------
 Charge = -1 Multiplicity = 1

                         Standard orientation:
 ---------------------------------------------------------------------
 Center     Atomic      Atomic             Coordinates (Angstroms)
 Number     Number       Type             X           Y           Z
 ---------------------------------------------------------------------
      1          6           0       -7.116737   -2.702563    0.399938
      2          6           0       -6.020820   -1.645326    0.289764
      3          6           0       -4.645187   -2.279430    0.117490
      4          7           0       -3.637904   -1.246933    0.018397
      5          6           0       -2.337837   -1.581222   -0.120367
      6          8           0       -1.934141   -2.744367   -0.171910
      7          7           0       -1.503308   -0.463122   -0.198150
      8          6           0       -0.143822   -0.448035   -0.337536
      9          6           0        0.668189   -1.603616   -0.440827
     10          6           0        0.469667    0.832154   -0.381512
     11          6           0        1.835541    0.955674   -0.517509
     12          6           0        2.623045   -0.201205   -0.618321
     13          6           0        2.039001   -1.471947   -0.578018
     14          1           0       -8.102608   -2.243125    0.524881
     15          1           0       -6.943031   -3.362449    1.258261
     16          1           0       -7.150768   -3.330434   -0.498353
     17          1           0       -6.012368   -1.006619    1.180805
     18          1           0       -6.216488   -0.975727   -0.555982
     19          1           0       -4.626018   -2.911703   -0.782123
     20          1           0       -4.420472   -2.941752    0.965901
     21          1           0       -3.941090   -0.254168    0.057681
     22          1           0       -1.956717    0.477861   -0.140374
     23          1           0        0.202304   -2.578625   -0.414602
     24          1           0       -0.167356    1.710321   -0.308913
     25          1           0        2.304871    1.934179   -0.558191
     26         16           0        4.349953   -0.056413   -0.742069
     27          8           0        4.730174    1.266902   -1.222270
     28          8           0        4.938769   -1.271940   -1.292001
     29          1           0        2.668050   -2.353185   -0.665571
     30          6           0        4.918128   -0.059186    1.030698
     31          9           0        6.245807    0.050667    1.070265
     32          9           0        4.385430    0.963612    1.697767
     33          9           0        4.566259   -1.192901    1.636156
     34          8           0       -4.596578    1.380425    0.139946
     35          8           0       -2.482518    2.105265   -0.070462
     36          6           0       -3.725489    2.282616    0.055736
     37          6           0       -4.235961    3.730353    0.114167
     38          6           0       -3.146655    4.789493    0.000296
     39          1           0       -4.792679    3.835776    1.053577
     40          1           0       -4.979215    3.840295   -0.685127
     41          1           0       -2.415024    4.679408    0.805877
     42          1           0       -3.569921    5.800229    0.047690
     43          1           0       -2.601738    4.683456   -0.942173
 ---------------------------------------------------------------------

 SCF Done:  E(RM062X) =  -1727.24881920     A.U. after    1 cycles

 The electronic state is 1-A.
 Alpha  occ. eigenvalues --  -90.07666 -25.24607 -25.24576 -25.24571 -19.57372
 Alpha  occ. eigenvalues --  -19.57365 -19.50149 -19.48055 -19.47496 -14.68086
 Alpha  occ. eigenvalues --  -14.65890 -10.75139 -10.57085 -10.52635 -10.52250
 Alpha  occ. eigenvalues --  -10.49809 -10.48927 -10.48854 -10.47908 -10.46508
 Alpha  occ. eigenvalues --  -10.46259 -10.45933 -10.45260 -10.43595 -10.43480
 Alpha  occ. eigenvalues --   -8.39047  -6.31203  -6.31191  -6.31081  -1.41380
 Alpha  occ. eigenvalues --   -1.32072  -1.32062  -1.16368  -1.06328  -1.05800
 Alpha  occ. eigenvalues --   -1.04131  -0.95153  -0.94367  -0.91664  -0.87975
 Alpha  occ. eigenvalues --   -0.80192  -0.78842  -0.77028  -0.76062  -0.75647
 Alpha  occ. eigenvalues --   -0.70323  -0.67768  -0.64063  -0.63496  -0.63153
 Alpha  occ. eigenvalues --   -0.62550  -0.61948  -0.59161  -0.57535  -0.56026
 Alpha  occ. eigenvalues --   -0.52729  -0.52187  -0.51318  -0.51292  -0.50179
 Alpha  occ. eigenvalues --   -0.47754  -0.47377  -0.47110  -0.46958  -0.46163
 Alpha  occ. eigenvalues --   -0.45856  -0.45340  -0.44131  -0.43096  -0.42638
 Alpha  occ. eigenvalues --   -0.42201  -0.41722  -0.41660  -0.41065  -0.39694
 Alpha  occ. eigenvalues --   -0.39330  -0.38033  -0.37701  -0.36800  -0.35504
 Alpha  occ. eigenvalues --   -0.34833  -0.34330  -0.33416  -0.33383  -0.33244
 Alpha  occ. eigenvalues --   -0.32342  -0.31648  -0.31115  -0.30918  -0.30742
 Alpha  occ. eigenvalues --   -0.29483  -0.28914  -0.28546  -0.23635  -0.23275
 Alpha  occ. eigenvalues --   -0.21063  -0.20507  -0.20310  -0.19709  -0.17089
 Alpha virt. eigenvalues --    0.07193   0.09782   0.09912   0.10348   0.10743
 Alpha virt. eigenvalues --    0.11185   0.11568   0.11883   0.12083   0.12678
 Alpha virt. eigenvalues --    0.12902   0.13287   0.13696   0.14226   0.14262

 Mulliken charges:
               1
     1  C   -0.793777
     2  C   -0.348749
     3  C   -0.182928
     4  N   -0.784034
     5  C    0.812820
     6  O   -0.598836
     7  N   -0.647645
     8  C    0.072171
     9  C   -0.336109
    10  C   -0.456182
    11  C    0.015642
    12  C   -0.394334
    13  C   -0.332203
    14  H    0.199614
    15  H    0.199884
    16  H    0.200040
    17  H    0.240517
    18  H    0.241830
    19  H    0.212516
    20  H    0.213525
    21  H    0.526238
    22  H    0.516066
    23  H    0.277629
    24  H    0.285232
    25  H    0.243258
    26  S    1.115401
    27  O   -0.472063
    28  O   -0.482663
    29  H    0.239959
    30  C    0.842897
    31  F   -0.289162
    32  F   -0.264297
    33  F   -0.267546
    34  O   -0.625748
    35  O   -0.680094
    36  C    0.696303
    37  C   -0.512619
    38  C   -0.713605
    39  H    0.211004
    40  H    0.211122
    41  H    0.216933
    42  H    0.175033
    43  H    0.216960
 Sum of Mulliken charges =  -1.00000

 Dipole moment (field-independent basis, Debye):
    X=              1.5267    Y=             -0.5017    Z=              1.9358  Tot=              2.5159
 Quadrupole moment (field-independent basis, Debye-Ang):
   XX=           -244.0833   YY=           -182.6780   ZZ=           -163.4844
   XY=              6.2107   XZ=             10.7088   YZ=             -0.5825

  Exact polarizability: 343.006  12.900 228.447 -12.461   0.038 151.372
 Approx polarizability: 336.193   7.069 278.399 -14.662   0.494 195.223

                      1                      2                      3
                      A                      A                      A
 Frequencies --     14.7181                17.4753                20.4330
 Red. masses --      4.3864                 4.8123                 3.4006
 Frc consts  --      0.0006                 0.0009                 0.0008
 IR Inten    --      0.3099                 0.2708                 0.3158

                      4                      5                      6
                      A                      A                      A
 Frequencies --     29.1716                39.6140                41.8810
 Red. masses --      2.6118                11.5824                 7.0697
 Frc consts  --      0.0013                 0.0107                 0.0073
 IR Inten    --      0.1272                 0.1414                 1.9362

                      7                      8                      9
                      A                      A                      A
 Frequencies --     45.6431                52.8579                55.1442
 Red. masses --      2.9545                 6.6224                 3.3064
 Frc consts  --      0.0036                 0.0109                 0.0059
 IR Inten    --      0.6489                 0.8852                 0.4922

                     10                     11                     12
                      A                      A                      A
 Frequencies --     63.3481                79.1567                83.6395
 Red. masses --      4.0614                 5.3308                 4.7226
 Frc consts  --      0.0096                 0.0197                 0.0195
 IR Inten    --      1.5896                 0.3677                 0.1102

                     13                     14                     15
                      A                      A                      A
 Frequencies --     85.4924               110.5156               133.9521
 Red. masses --      5.4630                 6.5007                 7.6891
 Frc consts  --      0.0235                 0.0468                 0.0813
 IR Inten    --      5.1770                 6.9114                14.5763

                     16                     17                     18
                      A                      A                      A
 Frequencies --    149.3556               184.1105               187.3112
 Red. masses --      4.3535                 6.1892                 4.4730
 Frc consts  --      0.0572                 0.1236                 0.0925
 IR Inten    --      4.8183                20.1815                10.3620

                     19                     20                     21
                      A                      A                      A
 Frequencies --    192.4176               199.2231               219.3312
 Red. masses --      7.1082                12.5754                 1.1268
 Frc consts  --      0.1551                 0.2941                 0.0319
 IR Inten    --      4.7657                 2.1942                 0.4880

                     22                     23                     24
                      A                      A                      A
 Frequencies --    227.6457               235.7618               253.1554
 Red. masses --      5.0671                 1.1390                10.2298
 Frc consts  --      0.1547                 0.0373                 0.3863
 IR Inten    --      4.3315                 0.0169                 5.5873

                     25                     26                     27
                      A                      A                      A
 Frequencies --    303.7007               307.6198               314.0373
 Red. masses --      4.4331                13.4689                 7.0639
 Frc consts  --      0.2409                 0.7509                 0.4104
 IR Inten    --     16.4634                 0.6667                 1.1043

                     28                     29                     30
                      A                      A                      A
 Frequencies --    330.5093               347.3501               352.2438
 Red. masses --      6.6953                 5.4122                 7.5559
 Frc consts  --      0.4309                 0.3847                 0.5524
 IR Inten    --      4.2945                18.4850                 1.1714

                     31                     32                     33
                      A                      A                      A
 Frequencies --    378.2635               429.3132               449.3554
 Red. masses --      8.0771                 3.1671                 8.0411
 Frc consts  --      0.6809                 0.3439                 0.9566
 IR Inten    --     18.7878                 0.0153                 1.9469

                     34                     35                     36
                      A                      A                      A
 Frequencies --    485.7245               513.2202               520.8842
 Red. masses --      5.4755                 3.3342                 5.7238
 Frc consts  --      0.7611                 0.5174                 0.9150
 IR Inten    --     38.7360                 4.6605                17.0060

                     37                     38                     39
                      A                      A                      A
 Frequencies --    529.3572               558.8569               578.2974
 Red. masses --     10.6283                17.1632                 9.8332
 Frc consts  --      1.7547                 3.1583                 1.9375
 IR Inten    --     11.9307                 0.0151                60.4174

                     40                     41                     42
                      A                      A                      A
 Frequencies --    583.2477               610.9862               633.9924
 Red. masses --      1.9731                10.0725                 7.1283
 Frc consts  --      0.3955                 2.2154                 1.6881
 IR Inten    --      0.9906               217.5127                 2.2551

                     43                     44                     45
                      A                      A                      A
 Frequencies --    659.1328               715.5043               732.5315
 Red. masses --      4.6707                 6.8443                 3.8482
 Frc consts  --      1.1956                 2.0644                 1.2166
 IR Inten    --     53.7246               128.3741                 6.1563

                     46                     47                     48
                      A                      A                      A
 Frequencies --    748.7053               772.7468               777.3057
 Red. masses --      1.1372                 4.1588                 9.4723
 Frc consts  --      0.3756                 1.4632                 3.3720
 IR Inten    --      5.0696                26.7366                 5.8271

                     49                     50                     51
                      A                      A                      A
 Frequencies --    783.7248               819.5524               831.1387
 Red. masses --      9.6724                 1.3963                 1.2177
 Frc consts  --      3.5003                 0.5526                 0.4956
 IR Inten    --     30.3480                 1.0921                17.5333

                     52                     53                     54
                      A                      A                      A
 Frequencies --    860.8115               871.0147               878.3671
 Red. masses --      1.2416                 5.0971                 1.6352
 Frc consts  --      0.5421                 2.2784                 0.7433
 IR Inten    --      7.2090                30.0684                32.2071

                     55                     56                     57
                      A                      A                      A
 Frequencies --    891.7836               902.5723               927.9156
 Red. masses --      3.9723                 1.1570                 1.7323
 Frc consts  --      1.8613                 0.5553                 0.8788
 IR Inten    --     26.7509                 2.4648                 4.7214

                     58                     59                     60
                      A                      A                      A
 Frequencies --    991.2644              1006.3296              1018.8757
 Red. masses --      1.1225                 1.2656                 3.7153
 Frc consts  --      0.6498                 0.7551                 2.2724
 IR Inten    --     52.5419                19.9209                55.7089

                     61                     62                     63
                      A                      A                      A
 Frequencies --   1022.9740              1023.0714              1049.3252
 Red. masses --      1.3815                 1.5315                 4.0748
 Frc consts  --      0.8518                 0.9444                 2.6435
 IR Inten    --     13.6864                12.7132                32.3583

                     64                     65                     66
                      A                      A                      A
 Frequencies --   1081.7867              1099.2989              1108.6516
 Red. masses --      2.7192                 3.9304                 1.7797
 Frc consts  --      1.8749                 2.7985                 1.2888
 IR Inten    --      6.0649               134.5277                 0.8403

                     67                     68                     69
                      A                      A                      A
 Frequencies --   1113.1517              1152.7972              1156.4012
 Red. masses --      2.3741                 1.9355                 3.3774
 Frc consts  --      1.7332                 1.5155                 2.6610
 IR Inten    --      5.9897                 6.7922               673.3253

                     70                     71                     72
                      A                      A                      A
 Frequencies --   1164.7168              1182.6150              1194.5709
 Red. masses --      1.6183                 1.6057                 4.2090
 Frc consts  --      1.2934                 1.3231                 3.5388
 IR Inten    --     16.0581                 0.0340                 2.4578

                     73                     74                     75
                      A                      A                      A
 Frequencies --   1220.7221              1241.2659              1267.1574
 Red. masses --      1.4804                 6.3541                13.0188
 Frc consts  --      1.2997                 5.7681                12.3164
 IR Inten    --     54.0715               213.9453               230.8924

                     76                     77                     78
                      A                      A                      A
 Frequencies --   1268.0545              1274.6858              1287.0254
 Red. masses --     13.0779                 1.1886                 1.1855
 Frc consts  --     12.3898                 1.1379                 1.1570
 IR Inten    --    241.9801                 0.1504                 0.1962

                     79                     80                     81
                      A                      A                      A
 Frequencies --   1310.8306              1330.5860              1331.5711
 Red. masses --      1.6548                 1.3948                 1.1213
 Frc consts  --      1.6753                 1.4549                 1.1714
 IR Inten    --    336.1490                 0.1393                 0.7808

                     82                     83                     84
                      A                      A                      A
 Frequencies --   1336.6747              1344.9880              1360.3552
 Red. masses --      1.6423                 2.2622                12.7106
 Frc consts  --      1.7288                 2.4111                13.8586
 IR Inten    --     33.4500                51.1450               243.2028

                     85                     86                     87
                      A                      A                      A
 Frequencies --   1374.4632              1402.1393              1422.7006
 Red. masses --      2.4531                 3.4284                 1.3192
 Frc consts  --      2.7304                 3.9712                 1.5732
 IR Inten    --    341.3485               244.4320                19.0484

                     88                     89                     90
                      A                      A                      A
 Frequencies --   1425.0336              1436.7271              1474.0813
 Red. masses --      1.3333                 1.6278                 3.3951
 Frc consts  --      1.5953                 1.9797                 4.3466
 IR Inten    --     15.2796                 4.7429               339.8712

                     91                     92                     93
                      A                      A                      A
 Frequencies --   1482.9214              1491.2616              1509.5808
 Red. masses --      3.6538                 1.2605                 1.0729
 Frc consts  --      4.7341                 1.6516                 1.4406
 IR Inten    --     32.9727                33.8914                10.9836

                     94                     95                     96
                      A                      A                      A
 Frequencies --   1512.1845              1523.4634              1524.1627
 Red. masses --      1.0396                 1.0399                 1.1078
 Frc consts  --      1.4007                 1.4220                 1.5163
 IR Inten    --      5.2680                 7.0213                61.8600

                     97                     98                     99
                      A                      A                      A
 Frequencies --   1528.0090              1542.2074              1560.2875
 Red. masses --      1.0683                 1.0845                 2.7184
 Frc consts  --      1.4696                 1.5198                 3.8992
 IR Inten    --      1.6836                12.6656               169.5596

                    100                    101                    102
                      A                      A                      A
 Frequencies --   1605.6530              1634.3108              1664.9374
 Red. masses --      3.7693                 2.4782                 6.0545
 Frc consts  --      5.7255                 3.9000                 9.8883
 IR Inten    --    197.0283                92.6240               828.0557

                    103                    104                    105
                      A                      A                      A
 Frequencies --   1691.8713              1718.6914              1799.8043
 Red. masses --      2.1516                 3.2881                 3.1285
 Frc consts  --      3.6287                 5.7225                 5.9709
 IR Inten    --    282.9309               719.8387               427.1629

                    106                    107                    108
                      A                      A                      A
 Frequencies --   2994.8290              3040.6080              3064.8751
 Red. masses --      1.1009                 1.0584                 1.0369
 Frc consts  --      5.8176                 5.7654                 5.7389
 IR Inten    --   1127.5212               133.6297                58.2732

                    109                    110                    111
                      A                      A                      A
 Frequencies --   3065.4269              3068.4894              3077.1364
 Red. masses --      1.1042                 1.0446                 1.0573
 Frc consts  --      6.1131                 5.7952                 5.8987
 IR Inten    --     31.6271                68.3230                27.6023

                    112                    113                    114
                      A                      A                      A
 Frequencies --   3087.0317              3109.4814              3116.2431
 Red. masses --      1.0611                 1.1013                 1.1026
 Frc consts  --      5.9577                 6.2738                 6.3084
 IR Inten    --     12.0532                14.5385                 0.5007

                    115                    116                    117
                      A                      A                      A
 Frequencies --   3139.8343              3139.8706              3140.7757
 Red. masses --      1.1010                 1.0991                 1.1007
 Frc consts  --      6.3950                 6.3842                 6.3974
 IR Inten    --     64.6546                73.4953                12.5922

                    118                    119                    120
                      A                      A                      A
 Frequencies --   3151.4064              3162.1758              3223.9674
 Red. masses --      1.0932                 1.1023                 1.0912
 Frc consts  --      6.3967                 6.4941                 6.6826
 IR Inten    --   1818.7000                36.1488                36.9932

                    121                    122                    123
                      A                      A                      A
 Frequencies --   3236.2978              3242.3560              3300.7593
 Red. masses --      1.0912                 1.0945                 1.0922
 Frc consts  --      6.7338                 6.7795                 7.0110
 IR Inten    --      0.4637                 1.6847                10.1640

 - Thermochemistry -
 -------------------
 Temperature   298.150 Kelvin.  Pressure   1.00000 Atm.
 Atom     1 has atomic number  6 and mass  12.00000

 Molecular mass:   383.08885 amu.
 Principal axes and moments of inertia in atomic units:
                           1         2         3
     Eigenvalues --  5545.51539********************
           X            0.99997   0.00387  -0.00643
           Y           -0.00389   0.99999  -0.00266
           Z            0.00642   0.00269   0.99998
 This molecule is an asymmetric top.
 Rotational symmetry number  1.
 Warning -- assumption of classical behavior for rotation
           may cause significant error
 Rotational temperatures (Kelvin)      0.01562     0.00372     0.00319
 Rotational constants (GHZ):           0.32544     0.07749     0.06654
 Zero-point vibrational energy     859797.5 (Joules/Mol)
                                  205.49654 (Kcal/Mol)
 Warning -- explicit consideration of  41 degrees of freedom as
           vibrations may cause significant error
 Vibrational temperatures:     21.18    25.14    29.40    41.97    57.00
          (Kelvin)             60.26    65.67    76.05    79.34    91.14
                              113.89   120.34   123.00   159.01   192.73
                              214.89   264.89   269.50   276.85   286.64
                              315.57   327.53   339.21   364.23   436.96
                              442.60   451.83   475.53   499.76   506.80
                              544.24   617.69   646.52   698.85   738.41
                              749.44   761.63   804.07   832.04   839.16
                              879.07   912.17   948.34  1029.45  1053.95
                             1077.22  1111.81  1118.37  1127.60  1179.15
                             1195.82  1238.51  1253.19  1263.77  1283.08
                             1298.60  1335.06  1426.21  1447.88  1465.93
                             1471.83  1471.97  1509.74  1556.45  1581.64
                             1595.10  1601.58  1658.62  1663.80  1675.77
                             1701.52  1718.72  1756.34  1785.90  1823.15
                             1824.45  1833.99  1851.74  1885.99  1914.41
                             1915.83  1923.17  1935.14  1957.25  1977.54
                             2017.36  2046.95  2050.30  2067.13  2120.87
                             2133.59  2145.59  2171.95  2175.69  2191.92
                             2192.93  2198.46  2218.89  2244.90  2310.17
                             2351.41  2395.47  2434.22  2472.81  2589.51
                             4308.89  4374.75  4409.67  4410.46  4414.87
                             4427.31  4441.54  4473.84  4483.57  4517.52
                             4517.57  4518.87  4534.17  4549.66  4638.56
                             4656.30  4665.02  4749.05

 Zero-point correction=                           0.327480 (Hartree/Particle)
 Thermal correction to Energy=                    0.354293
 Thermal correction to Enthalpy=                  0.355238
 Thermal correction to Gibbs Free Energy=         0.263781
 Sum of electronic and zero-point Energies=          -1726.921340
 Sum of electronic and thermal Energies=             -1726.894526
 Sum of electronic and thermal Enthalpies=           -1726.893582
 Sum of electronic and thermal Free Energies=        -1726.985038

                     E (Thermal)             CV                S
                      KCal/Mol        Cal/Mol-Kelvin    Cal/Mol-Kelvin
 Total                  222.322             93.385            192.487
 Electronic               0.000              0.000              0.000
 Translational            0.889              2.981             43.722
 Rotational               0.889              2.981             36.503
 Vibrational            220.545             87.423            112.263
 Vibration     1          0.593              1.986              7.243
 Vibration     2          0.593              1.986              6.902
 Vibration     3          0.593              1.986              6.592
 Vibration     4          0.593              1.984              5.885
 Vibration     5          0.594              1.981              5.278
 Vibration     6          0.595              1.980              5.168
 Vibration     7          0.595              1.979              4.998
 Vibration     8          0.596              1.976              4.708
 Vibration     9          0.596              1.976              4.624
 Vibration    10          0.597              1.972              4.350
 Vibration    11          0.600              1.963              3.912
 Vibration    12          0.601              1.960              3.804
 Vibration    13          0.601              1.959              3.761
 Vibration    14          0.606              1.941              3.260
 Vibration    15          0.613              1.919              2.889
 Vibration    16          0.618              1.903              2.680
 Vibration    17          0.631              1.861              2.286
 Vibration    18          0.632              1.857              2.254
 Vibration    19          0.634              1.850              2.204
 Vibration    20          0.637              1.841              2.140
 Vibration    21          0.647              1.812              1.965
 Vibration    22          0.651              1.799              1.897
 Vibration    23          0.655              1.786              1.835
 Vibration    24          0.664              1.757              1.709
 Vibration    25          0.695              1.667              1.396
 Vibration    26          0.697              1.659              1.375
 Vibration    27          0.702              1.647              1.341
 Vibration    28          0.713              1.615              1.258
 Vibration    29          0.725              1.581              1.178
 Vibration    30          0.729              1.571              1.156
 Vibration    31          0.749              1.516              1.046
 Vibration    32          0.791              1.406              0.861
 Vibration    33          0.808              1.362              0.798
 Vibration    34          0.842              1.282              0.695
 Vibration    35          0.868              1.221              0.626
 Vibration    36          0.876              1.204              0.608
 Vibration    37          0.884              1.185              0.589
 Vibration    38          0.914              1.120              0.526
 Vibration    39          0.935              1.078              0.489
 Vibration    40          0.940              1.068              0.479
 Vibration    41          0.970              1.009              0.431

 1\1\GINC-R3722\Freq\RM062X\Gen\C14H18F3N2O5S1(1-)\ROOT\19-Feb-2019\0\\
 #N Geom=AllCheck Guess=TCheck SCRF=Check Test GenChk RM062X/ChkBas Fre
 q\\4SulfOxyCF3_EtO.M062X_6-31pGd_opt\\-1,1\C,-2.1691518038,2.181103117
 4,-0.1737462307\C,-0.7914325814,1.570967769,0.0723154464\C,0.317693721
 5,2.6025303916,-0.1004481368\N,1.6031642402,1.9857265324,0.1395667749\
 C,2.7344558547,2.7121655484,0.0227499145\O,2.7503595045,3.9057755048,-
 0.2831510539\N,3.8825448409,1.960467313,0.2863370177\C,5.1808865899,2.
 3860737943,0.2543056783\C,5.5880636399,3.7075943063,-0.0509636564\C,6.

 Normal termination of Gaussian 09 at Tue Feb 19 13:39:32 2019.
