 Gaussian 09, Revision E.01,

 ----------------------------------------------------------------------
 # M062X/Gen 6D SCF=Tight INT(grid=ultrafine) OPT IOP(2/17=4) SCRF=(SMD
 ,Solvent=n-Pentadecane) maxdisk=3221225472
 ----------------------------------------------------------------------

 ---------------------------------------------
 4SulfOxyCF3_EtO.M062X_6-31pGd_opt_Pentadecane
 ---------------------------------------------
 Symbolic Z-matrix:
 Charge = -1 Multiplicity = 1

 SCF Done:  E(RM062X) =  -1727.28775303     A.U. after   16 cycles
 SCF Done:  E(RM062X) =  -1727.28782367     A.U. after   13 cycles
 SCF Done:  E(RM062X) =  -1727.28690904     A.U. after   14 cycles
 SCF Done:  E(RM062X) =  -1727.28786223     A.U. after   14 cycles
 SCF Done:  E(RM062X) =  -1727.28786622     A.U. after   11 cycles
 SCF Done:  E(RM062X) =  -1727.28786856     A.U. after   11 cycles
 SCF Done:  E(RM062X) =  -1727.28786962     A.U. after   11 cycles
 SCF Done:  E(RM062X) =  -1727.28787069     A.U. after   11 cycles
 SCF Done:  E(RM062X) =  -1727.28787135     A.U. after   10 cycles
 SCF Done:  E(RM062X) =  -1727.28787248     A.U. after   11 cycles
 SCF Done:  E(RM062X) =  -1727.28787460     A.U. after   10 cycles
 SCF Done:  E(RM062X) =  -1727.28787475     A.U. after    9 cycles
 SCF Done:  E(RM062X) =  -1727.28787512     A.U. after   11 cycles
 SCF Done:  E(RM062X) =  -1727.28787532     A.U. after   11 cycles
 SCF Done:  E(RM062X) =  -1727.28787560     A.U. after    9 cycles
 SCF Done:  E(RM062X) =  -1727.28787583     A.U. after   10 cycles
 SCF Done:  E(RM062X) =  -1727.28787593     A.U. after    9 cycles
 SCF Done:  E(RM062X) =  -1727.28787594     A.U. after    8 cycles
 Optimization completed.
    -- Stationary point found.

 1\1\GINC-R3762\FOpt\RM062X\Gen\C14H18F3N2O5S1(1-)\ROOT\19-Feb-2019\0\\
 # M062X/Gen 6D SCF=Tight INT(grid=ultrafine) OPT IOP(2/17=4) SCRF=(SMD
 ,Solvent=n-Pentadecane) maxdisk=3221225472\\4SulfOxyCF3_EtO.M062X_6-31
 pGd_opt_Pentadecane\\-1,1\C,-2.1762893785,2.2119658266,-0.1879332421\C
 ,-0.8087695217,1.5953349628,0.0911902431\C,0.3135606929,2.6035539924,-
 0.1228098848\N,1.5967662486,1.9842793208,0.1400472748\C,2.7314226193,2
 .7043957697,0.0241657691\O,2.7503623057,3.8955794491,-0.2956788503\N,3
 .8782410308,1.9596172301,0.3019356984\C,5.1789573871,2.3875326411,0.26

 Normal termination of Gaussian 09 at Tue Feb 19 18:34:58 2019.
 Gaussian 09:  ES64L-G09RevE.01 30-Nov-2015

 ----------------------------------------------------------------------
 # M062X/Gen 6D SCF=Tight INT(grid=ultrafine) OPT IOP(2/17=4) SCRF=(SMD
 ,Solvent=n-Pentadecane) Freq=Noraman maxdisk=3221225472 geom=check gue
 ss=read IOP(2/17=4)
 ----------------------------------------------------------------------

 ---------------------------------------------
 4SulfOxyCF3_EtO.M062X_6-31pGd_opt_Pentadecane
 ---------------------------------------------
 Structure from the checkpoint file:  "4SulfOxyCF3_EtO.M062X_6-31pGd_opt_Pentadecane.chk"
 Charge = -1 Multiplicity = 1

 SCF Done:  E(RM062X) =  -1727.28787594     A.U. after    2 cycles
 Optimization completed.
    -- Stationary point found.

 1\1\GINC-R3762\FOpt\RM062X\Gen\C14H18F3N2O5S1(1-)\ROOT\19-Feb-2019\0\\
 # M062X/Gen 6D SCF=Tight INT(grid=ultrafine) OPT IOP(2/17=4) SCRF=(SMD
 ,Solvent=n-Pentadecane) Freq=Noraman maxdisk=3221225472 geom=check gue
 ss=read IOP(2/17=4)\\4SulfOxyCF3_EtO.M062X_6-31pGd_opt_Pentadecane\\-1
 ,1\C,-2.1762893785,2.2119658266,-0.1879332421\C,-0.8087695217,1.595334
 9628,0.0911902431\C,0.3135606929,2.6035539924,-0.1228098848\N,1.596766
 2486,1.9842793208,0.1400472748\C,2.7314226193,2.7043957697,0.024165769
 1\O,2.7503623057,3.8955794491,-0.2956788503\N,3.8782410308,1.959617230

 Normal termination of Gaussian 09 at Tue Feb 19 18:36:37 2019.

 ----------------------------------------------------------------------
 #N Geom=AllCheck Guess=TCheck SCRF=Check Test GenChk RM062X/ChkBas Fre
 q
 ----------------------------------------------------------------------

 Structure from the checkpoint file:  "4SulfOxyCF3_EtO.M062X_6-31pGd_opt_Pentadecane.chk"
 ---------------------------------------------
 4SulfOxyCF3_EtO.M062X_6-31pGd_opt_Pentadecane
 ---------------------------------------------
 Charge = -1 Multiplicity = 1

                         Standard orientation:
 ---------------------------------------------------------------------
 Center     Atomic      Atomic             Coordinates (Angstroms)
 Number     Number       Type             X           Y           Z
 ---------------------------------------------------------------------
      1          6           0       -7.112176   -2.735125    0.408825
      2          6           0       -6.031661   -1.666849    0.269077
      3          6           0       -4.645541   -2.286735    0.141254
      4          7           0       -3.643683   -1.247015    0.020956
      5          6           0       -2.342610   -1.574627   -0.118048
      6          8           0       -1.935457   -2.738380   -0.156530
      7          7           0       -1.508682   -0.459771   -0.211339
      8          6           0       -0.146102   -0.446989   -0.350439
      9          6           0        0.663638   -1.602088   -0.460578
     10          6           0        0.470304    0.830589   -0.386639
     11          6           0        1.836981    0.953544   -0.518594
     12          6           0        2.621068   -0.204355   -0.624845
     13          6           0        2.035497   -1.473942   -0.594703
     14          1           0       -8.105948   -2.284323    0.497515
     15          1           0       -6.944796   -3.353165    1.298879
     16          1           0       -7.124223   -3.401906   -0.461518
     17          1           0       -6.046745   -0.994866    1.135430
     18          1           0       -6.227417   -1.040455   -0.609358
     19          1           0       -4.604705   -2.947583   -0.735652
     20          1           0       -4.429474   -2.914839    1.016911
     21          1           0       -3.949186   -0.255975    0.048634
     22          1           0       -1.958420    0.482091   -0.154887
     23          1           0        0.200371   -2.578076   -0.441270
     24          1           0       -0.161434    1.711595   -0.309832
     25          1           0        2.303886    1.933648   -0.548635
     26         16           0        4.351043   -0.062372   -0.737904
     27          8           0        4.737440    1.259150   -1.219561
     28          8           0        4.941407   -1.278567   -1.285769
     29          1           0        2.658544   -2.358978   -0.686053
     30          6           0        4.907482   -0.065659    1.037570
     31          9           0        6.235293    0.026693    1.080804
     32          9           0        4.383819    0.966946    1.694640
     33          9           0        4.536264   -1.192015    1.642953
     34          8           0       -4.583766    1.403472    0.112010
     35          8           0       -2.468940    2.120703   -0.081704
     36          6           0       -3.710642    2.306669    0.047511
     37          6           0       -4.214247    3.752624    0.141259
     38          6           0       -3.133108    4.816266    0.006509
     39          1           0       -4.735914    3.846172    1.102167
     40          1           0       -4.985258    3.876041   -0.629010
     41          1           0       -2.375121    4.703761    0.787253
     42          1           0       -3.561006    5.822960    0.083196
     43          1           0       -2.620428    4.733757   -0.956695
 ---------------------------------------------------------------------

 SCF Done:  E(RM062X) =  -1727.28787594     A.U. after    1 cycles

 The electronic state is 1-A.
 Alpha  occ. eigenvalues --  -90.12404 -25.29132 -25.29116 -25.29115 -19.62154
 Alpha  occ. eigenvalues --  -19.62151 -19.55221 -19.53221 -19.52681 -14.73132
 Alpha  occ. eigenvalues --  -14.70956 -10.79768 -10.62158 -10.57735 -10.57129
 Alpha  occ. eigenvalues --  -10.54623 -10.53622 -10.53562 -10.52408 -10.51322
 Alpha  occ. eigenvalues --  -10.51075 -10.49561 -10.49513 -10.48298 -10.47973
 Alpha  occ. eigenvalues --   -8.43797  -6.35954  -6.35937  -6.35832  -1.45957
 Alpha  occ. eigenvalues --   -1.36643  -1.36637  -1.21132  -1.11386  -1.10557
 Alpha  occ. eigenvalues --   -1.09291  -1.00142  -0.99442  -0.96566  -0.92799
 Alpha  occ. eigenvalues --   -0.84879  -0.83193  -0.81797  -0.80719  -0.80356
 Alpha  occ. eigenvalues --   -0.74893  -0.72257  -0.68680  -0.68074  -0.67805
 Alpha  occ. eigenvalues --   -0.67287  -0.66671  -0.63542  -0.62292  -0.60875
 Alpha  occ. eigenvalues --   -0.57498  -0.57062  -0.55966  -0.55857  -0.54892
 Alpha  occ. eigenvalues --   -0.52387  -0.52054  -0.51814  -0.51712  -0.50950
 Alpha  occ. eigenvalues --   -0.50313  -0.49873  -0.48749  -0.47950  -0.47436
 Alpha  occ. eigenvalues --   -0.46984  -0.46480  -0.46467  -0.45854  -0.44302
 Alpha  occ. eigenvalues --   -0.44090  -0.42595  -0.42480  -0.41356  -0.40115
 Alpha  occ. eigenvalues --   -0.39805  -0.38971  -0.38171  -0.38056  -0.37590
 Alpha  occ. eigenvalues --   -0.37095  -0.36245  -0.35889  -0.35233  -0.35052
 Alpha  occ. eigenvalues --   -0.34198  -0.33664  -0.33368  -0.28704  -0.28057
 Alpha  occ. eigenvalues --   -0.26190  -0.25642  -0.25434  -0.24860  -0.22085
 Alpha virt. eigenvalues --    0.02459   0.05551   0.05689   0.06638   0.06891
 Alpha virt. eigenvalues --    0.07147   0.07443   0.07669   0.08120   0.08582
 Alpha virt. eigenvalues --    0.08776   0.09345   0.09427   0.10302   0.10359

 Mulliken charges:
               1
     1  C   -0.808467
     2  C   -0.351907
     3  C   -0.177409
     4  N   -0.795705
     5  C    0.826570
     6  O   -0.616804
     7  N   -0.663446
     8  C    0.114626
     9  C   -0.350772
    10  C   -0.471773
    11  C    0.009346
    12  C   -0.392480
    13  C   -0.355116
    14  H    0.209190
    15  H    0.208033
    16  H    0.207836
    17  H    0.238982
    18  H    0.237751
    19  H    0.220083
    20  H    0.219269
    21  H    0.528055
    22  H    0.516144
    23  H    0.279977
    24  H    0.286035
    25  H    0.257255
    26  S    1.121568
    27  O   -0.479311
    28  O   -0.491869
    29  H    0.254463
    30  C    0.848505
    31  F   -0.286709
    32  F   -0.262654
    33  F   -0.265373
    34  O   -0.645773
    35  O   -0.694922
    36  C    0.692737
    37  C   -0.506713
    38  C   -0.719170
    39  H    0.218863
    40  H    0.218417
    41  H    0.217829
    42  H    0.187737
    43  H    0.217103
 Sum of Mulliken charges =  -1.00000

 Dipole moment (field-independent basis, Debye):
    X=              1.5478    Y=             -0.5022    Z=              2.1469  Tot=              2.6939
 Quadrupole moment (field-independent basis, Debye-Ang):
   XX=           -239.8154   YY=           -180.0545   ZZ=           -163.1685
   XY=              6.9783   XZ=             10.7798   YZ=             -0.3293

  Exact polarizability: 373.138  14.137 254.939 -14.100   0.265 167.631
 Approx polarizability: 333.410   6.827 277.508 -14.449   0.702 194.901

                      1                      2                      3
                      A                      A                      A
 Frequencies --     18.4157                20.2536                32.5682
 Red. masses --      8.5475                 4.9784                 4.0112
 Frc consts  --      0.0017                 0.0012                 0.0025
 IR Inten    --      0.2871                 0.2841                 1.6109

                      4                      5                      6
                      A                      A                      A
 Frequencies --     34.8092                37.4547                45.3600
 Red. masses --     10.4781                 5.8902                 3.4892
 Frc consts  --      0.0075                 0.0049                 0.0042
 IR Inten    --      0.1033                 0.1947                 2.7034

                      7                      8                      9
                      A                      A                      A
 Frequencies --     51.9592                58.4809                65.2828
 Red. masses --      6.1471                 3.3648                 3.0007
 Frc consts  --      0.0098                 0.0068                 0.0075
 IR Inten    --      1.1738                 0.7371                 1.1235

                     10                     11                     12
                      A                      A                      A
 Frequencies --     67.4196                80.6486                83.9241
 Red. masses --      2.5427                 5.0580                 3.9707
 Frc consts  --      0.0068                 0.0194                 0.0165
 IR Inten    --      0.5430                 0.0668                 1.1063

                     13                     14                     15
                      A                      A                      A
 Frequencies --     86.8931               108.8487               134.6590
 Red. masses --      4.8319                 6.6388                 7.9809
 Frc consts  --      0.0215                 0.0463                 0.0853
 IR Inten    --      6.7661                 8.8846                21.8947

                     16                     17                     18
                      A                      A                      A
 Frequencies --    150.5988               178.9091               187.4644
 Red. masses --      4.1871                 5.7565                 4.8744
 Frc consts  --      0.0560                 0.1086                 0.1009
 IR Inten    --      4.0804                28.5320                 4.1227

                     19                     20                     21
                      A                      A                      A
 Frequencies --    194.5772               200.9034               223.7970
 Red. masses --      6.6420                13.0305                 1.3258
 Frc consts  --      0.1482                 0.3099                 0.0391
 IR Inten    --      4.5969                 2.3666                 1.2363

                     22                     23                     24
                      A                      A                      A
 Frequencies --    229.1578               236.5031               254.4593
 Red. masses --      3.1774                 1.1543                10.1464
 Frc consts  --      0.0983                 0.0380                 0.3871
 IR Inten    --      4.6034                 0.1077                 7.2059

                     25                     26                     27
                      A                      A                      A
 Frequencies --    305.6767               309.3288               314.6375
 Red. masses --      4.3918                13.7312                 6.7351
 Frc consts  --      0.2418                 0.7741                 0.3928
 IR Inten    --     17.5085                 0.5349                 2.0446

                     28                     29                     30
                      A                      A                      A
 Frequencies --    330.9885               348.4277               353.0137
 Red. masses --      6.5832                 5.0582                 8.3272
 Frc consts  --      0.4249                 0.3618                 0.6114
 IR Inten    --      4.5595                23.2560                 3.2787

                     31                     32                     33
                      A                      A                      A
 Frequencies --    379.5293               429.8194               449.0262
 Red. masses --      8.1399                 3.1611                 8.0238
 Frc consts  --      0.6908                 0.3441                 0.9532
 IR Inten    --     21.9855                 0.0266                 2.4267

                     34                     35                     36
                      A                      A                      A
 Frequencies --    484.0944               514.3872               520.5375
 Red. masses --      5.4997                 3.4208                 5.6975
 Frc consts  --      0.7594                 0.5333                 0.9096
 IR Inten    --     48.9028                 5.9541                20.7964

                     37                     38                     39
                      A                      A                      A
 Frequencies --    528.3621               559.1782               576.6388
 Red. masses --     10.4505                17.1655                 9.4938
 Frc consts  --      1.7189                 3.1623                 1.8599
 IR Inten    --     16.1166                 0.0353                75.8483

                     40                     41                     42
                      A                      A                      A
 Frequencies --    585.5800               606.3731               634.4152
 Red. masses --      1.9708                10.0846                 7.1345
 Frc consts  --      0.3982                 2.1847                 1.6918
 IR Inten    --      1.0854               256.1486                 2.1587

                     43                     44                     45
                      A                      A                      A
 Frequencies --    659.3814               713.8477               731.6304
 Red. masses --      4.6571                 6.8769                 3.8141
 Frc consts  --      1.1930                 2.0647                 1.2029
 IR Inten    --     63.2295               146.1930                 6.2791

                     46                     47                     48
                      A                      A                      A
 Frequencies --    753.6955               768.8922               778.4025
 Red. masses --      1.2181                 2.9273                 9.1519
 Frc consts  --      0.4077                 1.0196                 3.2672
 IR Inten    --     12.6710                34.1659                 4.7036

                     49                     50                     51
                      A                      A                      A
 Frequencies --    784.8220               819.1003               827.9938
 Red. masses --     10.0933                 1.2877                 1.3998
 Frc consts  --      3.6629                 0.5090                 0.5654
 IR Inten    --     34.4286                 3.0127                18.6653

                     52                     53                     54
                      A                      A                      A
 Frequencies --    860.5330               871.7720               880.0669
 Red. masses --      1.2698                 5.0886                 1.5895
 Frc consts  --      0.5540                 2.2785                 0.7254
 IR Inten    --     16.8309                30.6433                32.1183

                     55                     56                     57
                      A                      A                      A
 Frequencies --    893.1745               905.5000               930.8544
 Red. masses --      3.9379                 1.1563                 1.7106
 Frc consts  --      1.8509                 0.5586                 0.8733
 IR Inten    --     28.4604                 3.5614                 5.1882

                     58                     59                     60
                      A                      A                      A
 Frequencies --    982.1915              1004.0626              1018.5284
 Red. masses --      1.0875                 1.2895                 3.7839
 Frc consts  --      0.6181                 0.7659                 2.3128
 IR Inten    --     94.1102                 7.6417                68.8293

                     61                     62                     63
                      A                      A                      A
 Frequencies --   1024.4135              1026.3964              1050.9109
 Red. masses --      1.2994                 1.6654                 4.1744
 Frc consts  --      0.8034                 1.0337                 2.7163
 IR Inten    --      9.4128                 5.5480                34.9411

                     64                     65                     66
                      A                      A                      A
 Frequencies --   1083.4376              1097.7611              1109.4444
 Red. masses --      2.6631                 4.1331                 1.7725
 Frc consts  --      1.8418                 2.9345                 1.2854
 IR Inten    --      5.6872               152.7476                 0.7628

                     67                     68                     69
                      A                      A                      A
 Frequencies --   1114.4768              1151.6759              1154.4427
 Red. masses --      2.3640                 2.7171                 2.4699
 Frc consts  --      1.7300                 2.1233                 1.9394
 IR Inten    --      7.8322               511.0781               328.2783

                     70                     71                     72
                      A                      A                      A
 Frequencies --   1166.1360              1183.0246              1188.7725
 Red. masses --      1.5408                 1.6013                 4.0548
 Frc consts  --      1.2345                 1.3205                 3.3761
 IR Inten    --     10.1620                 0.1865                 2.3160

                     73                     74                     75
                      A                      A                      A
 Frequencies --   1220.1910              1239.1258              1260.4193
 Red. masses --      1.5655                 4.7026                12.8505
 Frc consts  --      1.3733                 4.2542                12.0282
 IR Inten    --     97.6949               201.8873               389.5672

                     76                     77                     78
                      A                      A                      A
 Frequencies --   1261.4758              1276.6338              1289.5840
 Red. masses --     13.1501                 1.1920                 1.1821
 Frc consts  --     12.3292                 1.1446                 1.1583
 IR Inten    --    179.4878                 0.0068                 0.0883

                     79                     80                     81
                      A                      A                      A
 Frequencies --   1308.7800              1330.0655              1331.2729
 Red. masses --      1.7227                 1.1477                 1.4428
 Frc consts  --      1.7386                 1.1962                 1.5066
 IR Inten    --    456.2615                 0.5027                 0.8350

                     82                     83                     84
                      A                      A                      A
 Frequencies --   1339.3761              1345.5301              1353.5393
 Red. masses --      1.6508                 1.9757                11.5542
 Frc consts  --      1.7448                 2.1075                12.4719
 IR Inten    --     39.9805                67.9264               289.2576

                     85                     86                     87
                      A                      A                      A
 Frequencies --   1369.9270              1398.0855              1426.1734
 Red. masses --      2.4147                 3.6933                 1.3812
 Frc consts  --      2.6699                 4.2533                 1.6552
 IR Inten    --    364.1894               311.4125                 2.7622

                     88                     89                     90
                      A                      A                      A
 Frequencies --   1426.6740              1436.0193              1474.0019
 Red. masses --      1.3331                 1.5430                 2.2515
 Frc consts  --      1.5987                 1.8748                 2.8822
 IR Inten    --     41.2770                 7.4820               313.8025

                     91                     92                     93
                      A                      A                      A
 Frequencies --   1480.4137              1487.1575              1504.4262
 Red. masses --      3.6039                 1.5350                 1.0719
 Frc consts  --      4.6536                 2.0001                 1.4293
 IR Inten    --     36.2147               103.9400                10.3829

                     94                     95                     96
                      A                      A                      A
 Frequencies --   1510.8611              1518.9439              1521.9079
 Red. masses --      1.0431                 1.0395                 1.1141
 Frc consts  --      1.4030                 1.4131                 1.5203
 IR Inten    --     10.1499                 8.7788                73.3601

                     97                     98                     99
                      A                      A                      A
 Frequencies --   1523.9292              1539.0458              1558.2845
 Red. masses --      1.0726                 1.0858                 2.6387
 Frc consts  --      1.4676                 1.5153                 3.7752
 IR Inten    --      1.4637                17.2332               247.3857

                    100                    101                    102
                      A                      A                      A
 Frequencies --   1604.7842              1632.7649              1661.1600
 Red. masses --      3.3884                 2.5158                 6.3892
 Frc consts  --      5.1413                 3.9515                10.3876
 IR Inten    --    241.2581                81.3696              1140.3832

                    103                    104                    105
                      A                      A                      A
 Frequencies --   1682.9704              1710.6582              1789.8397
 Red. masses --      2.4554                 3.0786                 2.9875
 Frc consts  --      4.0975                 5.3080                 5.6388
 IR Inten    --    368.1445               618.3919               488.6343

                    106                    107                    108
                      A                      A                      A
 Frequencies --   3007.0226              3050.0574              3069.4052
 Red. masses --      1.0999                 1.0582                 1.0368
 Frc consts  --      5.8595                 5.8003                 5.7552
 IR Inten    --   1399.6157               125.6746                51.6388

                    109                    110                    111
                      A                      A                      A
 Frequencies --   3073.1685              3077.0504              3078.8634
 Red. masses --      1.0483                 1.1050                 1.0525
 Frc consts  --      5.8329                 6.1643                 5.8784
 IR Inten    --     59.0573                30.1229                21.6860

                    112                    113                    114
                      A                      A                      A
 Frequencies --   3085.4704              3111.5314              3119.5367
 Red. masses --      1.0604                 1.1010                 1.1034
 Frc consts  --      5.9478                 6.2806                 6.3267
 IR Inten    --     24.9273                14.2362                 1.2019

                    115                    116                    117
                      A                      A                      A
 Frequencies --   3141.8416              3142.1852              3145.6204
 Red. masses --      1.1040                 1.0982                 1.1013
 Frc consts  --      6.4209                 6.3887                 6.4202
 IR Inten    --     76.9956                59.9978                24.6030

                    118                    119                    120
                      A                      A                      A
 Frequencies --   3161.6974              3167.4976              3231.5759
 Red. masses --      1.1026                 1.0930                 1.0910
 Frc consts  --      6.4942                 6.4611                 6.7129
 IR Inten    --     42.9341              1872.0728                30.8118

                    121                    122                    123
                      A                      A                      A
 Frequencies --   3241.4039              3247.9398              3305.3450
 Red. masses --      1.0916                 1.0946                 1.0921
 Frc consts  --      6.7573                 6.8033                 7.0300
 IR Inten    --      0.3092                 1.9589                11.0627

 - Thermochemistry -
 -------------------
 Temperature   298.150 Kelvin.  Pressure   1.00000 Atm.
 Atom     1 has atomic number  6 and mass  12.00000

 Molecular mass:   383.08885 amu.
 Principal axes and moments of inertia in atomic units:
                           1         2         3
     Eigenvalues --  5596.29160********************
           X            0.99997   0.00410  -0.00656
           Y           -0.00412   0.99999  -0.00235
           Z            0.00655   0.00237   0.99998
 This molecule is an asymmetric top.
 Rotational symmetry number  1.
 Warning -- assumption of classical behavior for rotation
           may cause significant error
 Rotational temperatures (Kelvin)      0.01548     0.00373     0.00319
 Rotational constants (GHZ):           0.32249     0.07764     0.06655
 Zero-point vibrational energy     860234.3 (Joules/Mol)
                                  205.60092 (Kcal/Mol)
 Warning -- explicit consideration of  41 degrees of freedom as
           vibrations may cause significant error
 Vibrational temperatures:     26.50    29.14    46.86    50.08    53.89
          (Kelvin)             65.26    74.76    84.14    93.93    97.00
                              116.04   120.75   125.02   156.61   193.74
                              216.68   257.41   269.72   279.95   289.05
                              321.99   329.71   340.27   366.11   439.80
                              445.05   452.69   476.22   501.31   507.91
                              546.06   618.41   646.05   696.50   740.09
                              748.94   760.19   804.53   829.65   842.52
                              872.43   912.78   948.70  1027.07  1052.65
                             1084.40  1106.26  1119.95  1129.18  1178.50
                             1191.30  1238.11  1254.28  1266.22  1285.08
                             1302.81  1339.29  1413.15  1444.62  1465.43
                             1473.90  1476.75  1512.02  1558.82  1579.43
                             1596.24  1603.48  1657.00  1660.98  1677.81
                             1702.11  1710.38  1755.58  1782.82  1813.46
                             1814.98  1836.79  1855.42  1883.04  1913.67
                             1915.40  1927.06  1935.92  1947.44  1971.02
                             2011.53  2051.94  2052.66  2066.11  2120.76
                             2129.98  2139.69  2164.53  2173.79  2185.42
                             2189.68  2192.59  2214.34  2242.02  2308.92
                             2349.18  2390.04  2421.42  2461.25  2575.18
                             4326.43  4388.35  4416.18  4421.60  4427.18
                             4429.79  4439.30  4476.79  4488.31  4520.40
                             4520.90  4525.84  4548.97  4557.32  4649.51
                             4663.65  4673.06  4755.65

 Zero-point correction=                           0.327646 (Hartree/Particle)
 Thermal correction to Energy=                    0.354329
 Thermal correction to Enthalpy=                  0.355273
 Thermal correction to Gibbs Free Energy=         0.265294
 Sum of electronic and zero-point Energies=          -1726.960230
 Sum of electronic and thermal Energies=             -1726.933547
 Sum of electronic and thermal Enthalpies=           -1726.932603
 Sum of electronic and thermal Free Energies=        -1727.022582

                     E (Thermal)             CV                S
                      KCal/Mol        Cal/Mol-Kelvin    Cal/Mol-Kelvin
 Total                  222.345             93.372            189.378
 Electronic               0.000              0.000              0.000
 Translational            0.889              2.981             43.722
 Rotational               0.889              2.981             36.510
 Vibrational            220.567             87.410            109.146
 Vibration     1          0.593              1.986              6.798
 Vibration     2          0.593              1.986              6.609
 Vibration     3          0.594              1.983              5.667
 Vibration     4          0.594              1.983              5.535
 Vibration     5          0.594              1.982              5.389
 Vibration     6          0.595              1.979              5.010
 Vibration     7          0.596              1.977              4.741
 Vibration     8          0.596              1.974              4.508
 Vibration     9          0.597              1.971              4.291
 Vibration    10          0.598              1.970              4.227
 Vibration    11          0.600              1.962              3.875
 Vibration    12          0.601              1.960              3.797
 Vibration    13          0.601              1.958              3.729
 Vibration    14          0.606              1.942              3.289
 Vibration    15          0.613              1.919              2.878
 Vibration    16          0.618              1.902              2.665
 Vibration    17          0.629              1.868              2.340
 Vibration    18          0.632              1.857              2.253
 Vibration    19          0.635              1.847              2.184
 Vibration    20          0.638              1.839              2.125
 Vibration    21          0.649              1.805              1.928
 Vibration    22          0.652              1.797              1.886
 Vibration    23          0.655              1.785              1.829
 Vibration    24          0.665              1.755              1.699
 Vibration    25          0.696              1.663              1.386
 Vibration    26          0.699              1.656              1.366
 Vibration    27          0.702              1.646              1.338
 Vibration    28          0.713              1.614              1.255
 Vibration    29          0.726              1.578              1.173
 Vibration    30          0.729              1.569              1.153
 Vibration    31          0.750              1.514              1.041
 Vibration    32          0.791              1.405              0.859
 Vibration    33          0.808              1.363              0.799
 Vibration    34          0.840              1.285              0.699
 Vibration    35          0.869              1.218              0.623
 Vibration    36          0.876              1.205              0.609
 Vibration    37          0.883              1.187              0.591
 Vibration    38          0.915              1.120              0.525
 Vibration    39          0.933              1.082              0.492
 Vibration    40          0.943              1.063              0.475
 Vibration    41          0.965              1.018              0.439

 1\1\GINC-R3762\Freq\RM062X\Gen\C14H18F3N2O5S1(1-)\ROOT\19-Feb-2019\0\\
 #N Geom=AllCheck Guess=TCheck SCRF=Check Test GenChk RM062X/ChkBas Fre
 q\\4SulfOxyCF3_EtO.M062X_6-31pGd_opt_Pentadecane\\-1,1\C,-2.1762893785
 ,2.2119658266,-0.1879332421\C,-0.8087695217,1.5953349628,0.0911902431\
 C,0.3135606929,2.6035539924,-0.1228098848\N,1.5967662486,1.9842793208,
 0.1400472748\C,2.7314226193,2.7043957697,0.0241657691\O,2.7503623057,3
 .8955794491,-0.2956788503\N,3.8782410308,1.9596172301,0.3019356984\C,5
 .1789573871,2.3875326411,0.267869456\C,5.5848820174,3.7095211659,-0.03

 Normal termination of Gaussian 09 at Tue Feb 19 19:40:44 2019.
