 Gaussian 09, Revision E.01,

 ----------------------------------------------------------------------
 # M062X/Gen 6D SCF=Tight INT(grid=ultrafine) OPT IOP(2/17=4) SCRF=(SMD
 ,Solvent=n-Pentadecane) maxdisk=2147483648
 ----------------------------------------------------------------------

 --------------------------------------
 4SulfCF3.M062X_6-31pGd_opt_Pentadecane
 --------------------------------------
 Symbolic Z-matrix:
 Charge =  0 Multiplicity = 1

 SCF Done:  E(RM062X) =  -1309.11385759     A.U. after   15 cycles
 SCF Done:  E(RM062X) =  -1309.12753218     A.U. after   14 cycles
 SCF Done:  E(RM062X) =  -1309.12858305     A.U. after   15 cycles
 SCF Done:  E(RM062X) =  -1309.12872328     A.U. after   12 cycles
 SCF Done:  E(RM062X) =  -1309.12875205     A.U. after   12 cycles
 SCF Done:  E(RM062X) =  -1309.12875805     A.U. after   10 cycles
 SCF Done:  E(RM062X) =  -1309.12876028     A.U. after   10 cycles
 SCF Done:  E(RM062X) =  -1309.12876170     A.U. after   10 cycles
 SCF Done:  E(RM062X) =  -1309.12876254     A.U. after   10 cycles
 SCF Done:  E(RM062X) =  -1309.12876262     A.U. after   10 cycles
 SCF Done:  E(RM062X) =  -1309.12902193     A.U. after   11 cycles
 SCF Done:  E(RM062X) =  -1309.12903632     A.U. after   12 cycles
 SCF Done:  E(RM062X) =  -1309.12903950     A.U. after   12 cycles
 SCF Done:  E(RM062X) =  -1309.12903688     A.U. after   12 cycles
 SCF Done:  E(RM062X) =  -1309.12904074     A.U. after   10 cycles
 SCF Done:  E(RM062X) =  -1309.12904219     A.U. after   10 cycles
 SCF Done:  E(RM062X) =  -1309.12904194     A.U. after   10 cycles
 SCF Done:  E(RM062X) =  -1309.12904214     A.U. after    8 cycles
 SCF Done:  E(RM062X) =  -1309.12904227     A.U. after    8 cycles
 Optimization completed.
    -- Stationary point found.
 Normal termination of Gaussian 09 at Fri Feb 22 18:30:31 2019.
 Gaussian 09:  ES64L-G09RevE.01 30-Nov-2015

 ----------------------------------------------------------------------
 # M062X/Gen 6D SCF=Tight INT(grid=ultrafine) SCRF=(SMD,Solvent=n-Penta
 decane) Freq=Noraman maxdisk=2147483648 geom=check guess=read IOP(2/17
 =4)
 ----------------------------------------------------------------------

 --------------------------------------
 4SulfCF3.M062X_6-31pGd_opt_Pentadecane
 --------------------------------------
 Structure from the checkpoint file:  "4SulfCF3.M062X_6-31pGd_opt_Pentadecane.chk"
 Charge =  0 Multiplicity = 1

                         Standard orientation:
 ---------------------------------------------------------------------
 Center     Atomic      Atomic             Coordinates (Angstroms)
 Number     Number       Type             X           Y           Z
 ---------------------------------------------------------------------
      1          6           0        7.815687   -0.456277    0.401597
      2          6           0        6.555178    0.403331    0.375158
      3          6           0        5.300481   -0.448807    0.234472
      4          7           0        4.113596    0.395479    0.213445
      5          6           0        2.904772   -0.131684   -0.151413
      6          8           0        2.780579   -1.267077   -0.586924
      7          7           0        1.848517    0.758008   -0.006690
      8          6           0        0.495158    0.537525   -0.273637
      9          6           0       -0.034478   -0.704202   -0.655486
     10          6           0       -0.367079    1.638394   -0.134620
     11          6           0       -1.726962    1.508905   -0.368315
     12          6           0       -2.254990    0.269527   -0.740164
     13          6           0       -1.401333   -0.824684   -0.884818
     14          1           0        8.712583    0.162212    0.501127
     15          1           0        7.911662   -1.040135   -0.520325
     16          1           0        7.797751   -1.158352    1.242462
     17          1           0        6.598383    1.114106   -0.458899
     18          1           0        6.494848    0.994578    1.299235
     19          1           0        5.241454   -1.180207    1.052975
     20          1           0        5.324050   -1.012582   -0.702144
     21          1           0        4.125866    1.211216    0.814117
     22          1           0        2.085855    1.710170    0.244100
     23          1           0        0.617715   -1.557784   -0.773460
     24          1           0        0.037536    2.604163    0.159640
     25          1           0       -2.381344    2.368465   -0.257827
     26         16           0       -3.997798    0.100364   -1.072094
     27          6           0       -4.543881   -0.296906    0.605473
     28          9           0       -4.271381    0.673175    1.490916
     29          9           0       -5.872585   -0.470185    0.590505
     30          9           0       -3.992582   -1.418731    1.088449
     31          1           0       -1.807401   -1.788542   -1.177683
 ---------------------------------------------------------------------

 SCF Done:  E(RM062X) =  -1309.12904227     A.U. after    2 cycles

 The electronic state is 1-A.
 Alpha  occ. eigenvalues --  -89.95380 -25.31156 -25.30782 -25.30744 -19.61931
 Alpha  occ. eigenvalues --  -14.81144 -14.79197 -10.83015 -10.69327 -10.61975
 Alpha  occ. eigenvalues --  -10.59236 -10.58321 -10.57408 -10.57082 -10.56814
 Alpha  occ. eigenvalues --  -10.55798 -10.55342 -10.54033  -8.29857  -6.21943
 Alpha  occ. eigenvalues --   -6.21684  -6.21231  -1.47640  -1.38447  -1.38022
 Alpha  occ. eigenvalues --   -1.18569  -1.06922  -1.03621  -0.97647  -0.91244
 Alpha  occ. eigenvalues --   -0.88762  -0.86072  -0.84380  -0.79404  -0.77237
 Alpha  occ. eigenvalues --   -0.72676  -0.71046  -0.69876  -0.69806  -0.69093
 Alpha  occ. eigenvalues --   -0.67321  -0.64576  -0.63910  -0.61888  -0.57973
 Alpha  occ. eigenvalues --   -0.57731  -0.56414  -0.55211  -0.54133  -0.53967
 Alpha  occ. eigenvalues --   -0.53494  -0.53149  -0.52761  -0.51731  -0.51014
 Alpha  occ. eigenvalues --   -0.50609  -0.49535  -0.48271  -0.47061  -0.46034
 Alpha  occ. eigenvalues --   -0.44303  -0.43006  -0.42302  -0.41735  -0.40907
 Alpha  occ. eigenvalues --   -0.40293  -0.38196  -0.35304  -0.32834  -0.32667
 Alpha  occ. eigenvalues --   -0.32094  -0.27986
 Alpha virt. eigenvalues --   -0.00457   0.00136   0.00881   0.01808   0.02900
 Alpha virt. eigenvalues --    0.03213   0.03609   0.03653   0.04123   0.04495
 Alpha virt. eigenvalues --    0.05107   0.05240   0.05993   0.06767   0.06872

 Mulliken charges:
               1
     1  C   -0.742697
     2  C   -0.324387
     3  C   -0.175004
     4  N   -0.606998
     5  C    0.845886
     6  O   -0.604394
     7  N   -0.664144
     8  C   -0.101065
     9  C    0.765571
    10  C   -1.053047
    11  C   -0.227965
    12  C   -0.124704
    13  C   -0.576703
    14  H    0.218036
    15  H    0.219478
    16  H    0.218021
    17  H    0.229389
    18  H    0.210777
    19  H    0.221318
    20  H    0.244426
    21  H    0.411724
    22  H    0.438381
    23  H    0.277569
    24  H    0.217853
    25  H    0.243537
    26  S    0.473957
    27  C    0.562955
    28  F   -0.278388
    29  F   -0.290792
    30  F   -0.273254
    31  H    0.244664
 Sum of Mulliken charges =  -0.00000

 Dipole moment (field-independent basis, Debye):
    X=              5.9784    Y=              4.3591    Z=              1.2797  Tot=              7.5087
 Quadrupole moment (field-independent basis, Debye-Ang):
   XX=           -106.6246   YY=           -107.2929   ZZ=           -115.7824
   XY=              8.9181   XZ=             10.6068   YZ=              2.3594

  Exact polarizability: 279.411   0.160 171.210  12.067  10.826 130.116
 Approx polarizability: 243.557   1.522 203.851  10.896  15.591 151.095

                      1                      2                      3
                      A                      A                      A
 Frequencies --     20.3304                22.4967                38.2168
 Red. masses --      6.0703                 3.8783                 7.6293
 Frc consts  --      0.0015                 0.0012                 0.0066
 IR Inten    --      0.5678                 5.9854                 0.1494

                      4                      5                      6
                      A                      A                      A
 Frequencies --     40.2089                51.7269                59.8336
 Red. masses --      4.3733                 5.1035                 3.2801
 Frc consts  --      0.0042                 0.0080                 0.0069
 IR Inten    --      0.2980                 4.5631                 4.6214

                      7                      8                      9
                      A                      A                      A
 Frequencies --     67.9504                85.2391               149.7142
 Red. masses --      4.3596                 3.8146                 4.9202
 Frc consts  --      0.0119                 0.0163                 0.0650
 IR Inten    --      1.2581                 1.6292                14.0940

                     10                     11                     12
                      A                      A                      A
 Frequencies --    157.0702               196.5908               217.0305
 Red. masses --      5.7434                 3.1982                 6.5162
 Frc consts  --      0.0835                 0.0728                 0.1808
 IR Inten    --      0.3466                 1.4475                 0.0800

                     13                     14                     15
                      A                      A                      A
 Frequencies --    242.8618               256.6116               304.3564
 Red. masses --      1.1290                 5.1190                 7.6856
 Frc consts  --      0.0392                 0.1986                 0.4195
 IR Inten    --      0.0331                 6.6385                 0.6817

                     16                     17                     18
                      A                      A                      A
 Frequencies --    318.4535               331.5558               343.9097
 Red. masses --      1.4998                 6.8651                 5.5599
 Frc consts  --      0.0896                 0.4446                 0.3874
 IR Inten    --     90.8949                 1.6748                12.4462

                     19                     20                     21
                      A                      A                      A
 Frequencies --    353.9025               385.0952               422.9641
 Red. masses --      3.8982                 6.0503                 3.0311
 Frc consts  --      0.2877                 0.5286                 0.3195
 IR Inten    --     11.6827                 3.9886                 0.2083

                     22                     23                     24
                      A                      A                      A
 Frequencies --    432.8269               478.7667               512.4061
 Red. masses --      6.2111                12.2602                 1.4182
 Frc consts  --      0.6856                 1.6558                 0.2194
 IR Inten    --      5.0077                 1.2448               139.5139

                     25                     26                     27
                      A                      A                      A
 Frequencies --    523.4585               528.9950               542.4396
 Red. masses --      2.8465                 3.5051                17.9637
 Frc consts  --      0.4595                 0.5779                 3.1142
 IR Inten    --     31.7099                24.2944                 1.7634

                     28                     29                     30
                      A                      A                      A
 Frequencies --    575.7419               641.0500               700.9340
 Red. masses --      8.0016                 7.0153                 6.2834
 Frc consts  --      1.5627                 1.6986                 1.8189
 IR Inten    --     19.3732                 0.6098                 3.7016

                     31                     32                     33
                      A                      A                      A
 Frequencies --    729.1039               755.4702               768.0651
 Red. masses --      3.9699                 1.8018                 2.0961
 Frc consts  --      1.2434                 0.6059                 0.7285
 IR Inten    --      2.7844                12.4765                 3.0763

                     34                     35                     36
                      A                      A                      A
 Frequencies --    773.9973               788.3268               842.6893
 Red. masses --     17.1233                 5.6038                 1.3876
 Frc consts  --      6.0439                 2.0519                 0.5806
 IR Inten    --     15.7376                 9.1732                25.5572

                     37                     38                     39
                      A                      A                      A
 Frequencies --    865.1319               870.7841               903.3378
 Red. masses --      1.5042                 4.7328                 1.1810
 Frc consts  --      0.6633                 2.1144                 0.5678
 IR Inten    --     37.6546                 3.9415                 2.8182

                     40                     41                     42
                      A                      A                      A
 Frequencies --    934.3895               978.9482              1004.0451
 Red. masses --      1.6848                 1.3246                 1.3397
 Frc consts  --      0.8667                 0.7479                 0.7958
 IR Inten    --      3.6116                 0.9703                 1.0886

                     43                     44                     45
                      A                      A                      A
 Frequencies --   1025.7530              1047.0353              1082.3262
 Red. masses --      3.7787                 4.2202                 2.5896
 Frc consts  --      2.3425                 2.7259                 1.7873
 IR Inten    --      4.8745                 3.6525                 3.6702

                     46                     47                     48
                      A                      A                      A
 Frequencies --   1128.7793              1144.7719              1157.8126
 Red. masses --      3.0816                 2.0161                 1.9730
 Frc consts  --      2.3134                 1.5567                 1.5583
 IR Inten    --     73.1603                12.6205               170.0903

                     49                     50                     51
                      A                      A                      A
 Frequencies --   1162.1979              1166.9277              1181.2451
 Red. masses --      3.7491                 2.4750                 1.8047
 Frc consts  --      2.9836                 1.9857                 1.4837
 IR Inten    --    342.8309                45.5090                 2.4557

                     52                     53                     54
                      A                      A                      A
 Frequencies --   1197.8458              1215.0197              1221.9065
 Red. masses --     12.7248                 1.1862                12.4571
 Frc consts  --     10.7573                 1.0318                10.9583
 IR Inten    --    262.6375                78.0127               290.4734

                     55                     56                     57
                      A                      A                      A
 Frequencies --   1244.5822              1281.4621              1300.1602
 Red. masses --      1.6229                 1.3219                 2.7707
 Frc consts  --      1.4811                 1.2790                 2.7595
 IR Inten    --    323.0604               121.7877                 2.5187

                     58                     59                     60
                      A                      A                      A
 Frequencies --   1325.7839              1330.3891              1347.3889
 Red. masses --      1.1635                 1.3888                 1.4681
 Frc consts  --      1.2049                 1.4482                 1.5703
 IR Inten    --     17.2394                 0.9192                 7.9824

                     61                     62                     63
                      A                      A                      A
 Frequencies --   1358.3963              1425.5385              1437.3028
 Red. masses --      3.0705                 1.5098                 1.3387
 Frc consts  --      3.3382                 1.8077                 1.6294
 IR Inten    --    223.6376                 0.6197                 1.6605

                     64                     65                     66
                      A                      A                      A
 Frequencies --   1451.4956              1509.8620              1520.3198
 Red. masses --      2.9297                 1.0625                 1.0432
 Frc consts  --      3.6366                 1.4271                 1.4206
 IR Inten    --     62.8729                15.3251                17.6738

                     67                     68                     69
                      A                      A                      A
 Frequencies --   1523.1602              1534.3732              1540.3814
 Red. masses --      1.0724                 1.1815                 1.5972
 Frc consts  --      1.4658                 1.6389                 2.2328
 IR Inten    --      8.5592                35.5221               444.4709

                     70                     71                     72
                      A                      A                      A
 Frequencies --   1556.1448              1580.1775              1659.9631
 Red. masses --      2.5078                 2.4349                 4.4509
 Frc consts  --      3.5780                 3.5822                 7.2260
 IR Inten    --      5.0421              1150.6190               131.4005

                     73                     74                     75
                      A                      A                      A
 Frequencies --   1679.8173              1804.1386              3057.8861
 Red. masses --      5.8475                 8.1359                 1.0690
 Frc consts  --      9.7217                15.6025                 5.8896
 IR Inten    --     61.8215               364.5474                29.8642

                     76                     77                     78
                      A                      A                      A
 Frequencies --   3062.4586              3079.8598              3107.6847
 Red. masses --      1.0654                 1.0365                 1.0972
 Frc consts  --      5.8872                 5.7926                 6.2434
 IR Inten    --     44.3203                34.5566                17.6620

                     79                     80                     81
                      A                      A                      A
 Frequencies --   3142.9689              3151.2253              3158.5944
 Red. masses --      1.0970                 1.1025                 1.1021
 Frc consts  --      6.3848                 6.4503                 6.4781
 IR Inten    --      2.5479                61.9213                33.8477

                     82                     83                     84
                      A                      A                      A
 Frequencies --   3212.5117              3236.5872              3240.1367
 Red. masses --      1.0898                 1.0923                 1.0948
 Frc consts  --      6.6264                 6.7415                 6.7720
 IR Inten    --     10.8061                 1.1815                 1.2869

                     85                     86                     87
                      A                      A                      A
 Frequencies --   3300.1141              3618.9479              3625.9903
 Red. masses --      1.0930                 1.0781                 1.0775
 Frc consts  --      7.0131                 8.3193                 8.3470
 IR Inten    --     10.3546                11.8109                84.1292

 - Thermochemistry -
 -------------------
 Temperature   298.150 Kelvin.  Pressure   1.00000 Atm.
 Atom     1 has atomic number  6 and mass  12.00000

 Molecular mass:   278.07007 amu.
 Principal axes and moments of inertia in atomic units:
                           1         2         3
     Eigenvalues --  1279.36851********************
           X            0.99996  -0.00370   0.00792
           Y            0.00294   0.99547   0.09499
           Z           -0.00823  -0.09496   0.99545
 This molecule is an asymmetric top.
 Rotational symmetry number  1.
 Warning -- assumption of classical behavior for rotation
           may cause significant error
 Rotational temperatures (Kelvin)      0.06770     0.00505     0.00500
 Rotational constants (GHZ):           1.41065     0.10532     0.10426
 Zero-point vibrational energy     624178.2 (Joules/Mol)
                                  149.18218 (Kcal/Mol)
 Warning -- explicit consideration of  28 degrees of freedom as
           vibrations may cause significant error
 Vibrational temperatures:     29.25    32.37    54.99    57.85    74.42
          (Kelvin)             86.09    97.77   122.64   215.41   225.99
                              282.85   312.26   349.42   369.21   437.90
                              458.18   477.03   494.81   509.19   554.07
                              608.55   622.74   688.84   737.24   753.14
                              761.10   780.45   828.36   922.33  1008.49
                             1049.02  1086.95  1105.07  1113.61  1134.22
                             1212.44  1244.73  1252.86  1299.70  1344.38
                             1408.49  1444.60  1475.83  1506.45  1557.22
                             1624.06  1647.07  1665.83  1672.14  1678.95
                             1699.55  1723.43  1748.14  1758.05  1790.67
                             1843.74  1870.64  1907.50  1914.13  1938.59
                             1954.43  2051.03  2067.96  2088.38  2172.35
                             2187.40  2191.49  2207.62  2216.26  2238.94
                             2273.52  2388.31  2416.88  2595.75  4399.61
                             4406.19  4431.23  4471.26  4522.03  4533.90
                             4544.51  4622.08  4656.72  4661.83  4748.12
                             5206.85  5216.98

 Zero-point correction=                           0.237737 (Hartree/Particle)
 Thermal correction to Energy=                    0.256133
 Thermal correction to Enthalpy=                  0.257078
 Thermal correction to Gibbs Free Energy=         0.187154
 Sum of electronic and zero-point Energies=          -1308.891305
 Sum of electronic and thermal Energies=             -1308.872909
 Sum of electronic and thermal Enthalpies=           -1308.871965
 Sum of electronic and thermal Free Energies=        -1308.941888

                     E (Thermal)             CV                S
                      KCal/Mol        Cal/Mol-Kelvin    Cal/Mol-Kelvin
 Total                  160.726             65.860            147.166
 Electronic               0.000              0.000              0.000
 Translational            0.889              2.981             42.767
 Rotational               0.889              2.981             34.294
 Vibrational            158.949             59.898             70.105
 Vibration     1          0.593              1.986              6.602
 Vibration     2          0.593              1.985              6.401
 Vibration     3          0.594              1.982              5.349
 Vibration     4          0.594              1.981              5.249
 Vibration     5          0.596              1.977              4.750
 Vibration     6          0.597              1.973              4.463
 Vibration     7          0.598              1.969              4.212
 Vibration     8          0.601              1.959              3.766
 Vibration     9          0.618              1.903              2.676
 Vibration    10          0.621              1.895              2.585
 Vibration    11          0.636              1.845              2.165
 Vibration    12          0.646              1.815              1.984
 Vibration    13          0.659              1.775              1.782
 Vibration    14          0.666              1.752              1.685
 Vibration    15          0.695              1.665              1.393
 Vibration    16          0.705              1.638              1.318
 Vibration    17          0.714              1.612              1.252
 Vibration    18          0.723              1.588              1.194
 Vibration    19          0.730              1.567              1.149
 Vibration    20          0.754              1.502              1.019
 Vibration    21          0.785              1.420              0.882
 Vibration    22          0.794              1.399              0.849
 Vibration    23          0.835              1.297              0.713
 Vibration    24          0.867              1.223              0.628
 Vibration    25          0.878              1.198              0.602
 Vibration    26          0.884              1.186              0.589
 Vibration    27          0.898              1.156              0.560
 Vibration    28          0.932              1.084              0.493

 Normal termination of Gaussian 09 at Fri Feb 22 19:15:31 2019.
