 Gaussian 09, Revision E.01,

 ----------------------------------------------------------------------
 # M062X/Gen 6D SCF=Tight INT(grid=ultrafine) OPT IOP(2/17=4) SCRF=(SMD
 ,Solvent=h2o) maxdisk=2684354560
 ----------------------------------------------------------------------

 ------------------------------------
 4SulfCF3_EtO.M062X_6-31pGd_opt_water
 ------------------------------------
 Symbolic Z-matrix:
 Charge = -1 Multiplicity = 1

 SCF Done:  E(RM062X) =  -1576.94513560     A.U. after   15 cycles
 SCF Done:  E(RM062X) =  -1576.97919274     A.U. after   13 cycles
 SCF Done:  E(RM062X) =  -1576.98740624     A.U. after   13 cycles
 SCF Done:  E(RM062X) =  -1576.98861333     A.U. after   13 cycles
 SCF Done:  E(RM062X) =  -1576.98893619     A.U. after   15 cycles
 SCF Done:  E(RM062X) =  -1576.98914569     A.U. after   15 cycles
 SCF Done:  E(RM062X) =  -1576.98943798     A.U. after   12 cycles
 SCF Done:  E(RM062X) =  -1576.98953713     A.U. after   12 cycles
 SCF Done:  E(RM062X) =  -1576.98956931     A.U. after   11 cycles
 SCF Done:  E(RM062X) =  -1576.98958161     A.U. after   11 cycles
 SCF Done:  E(RM062X) =  -1576.98962388     A.U. after   10 cycles
 SCF Done:  E(RM062X) =  -1576.98962429     A.U. after    9 cycles
 SCF Done:  E(RM062X) =  -1576.98962465     A.U. after   10 cycles
 SCF Done:  E(RM062X) =  -1576.98962514     A.U. after    9 cycles
 SCF Done:  E(RM062X) =  -1576.98962531     A.U. after    9 cycles
 SCF Done:  E(RM062X) =  -1576.98962552     A.U. after    9 cycles
 SCF Done:  E(RM062X) =  -1576.98962563     A.U. after    9 cycles
 SCF Done:  E(RM062X) =  -1576.98962568     A.U. after    8 cycles
 Optimization completed.
    -- Stationary point found.

 1\1\GINC-R4170\FOpt\RM062X\Gen\C14H18F3N2O3S1(1-)\ROOT\19-Feb-2019\0\\
 # M062X/Gen 6D SCF=Tight INT(grid=ultrafine) OPT IOP(2/17=4) SCRF=(SMD
 ,Solvent=h2o) maxdisk=2684354560\\4SulfCF3_EtO.M062X_6-31pGd_opt_water
 \\-1,1\C,-1.7297754694,2.2652716508,0.3488036343\C,-0.3694338666,1.586
 8393875,0.2223474364\C,0.7432894257,2.6146058263,0.0749966022\N,2.0343
 809529,1.9528783219,-0.0439485772\C,3.1660882995,2.6717864571,-0.17852
 55737\O,3.1657780198,3.9170737127,-0.2064688821\N,4.3121181407,1.90964
 60265,-0.2817838256\C,5.6269970466,2.3463308702,-0.4120351775\C,6.0250

 Normal termination of Gaussian 09 at Tue Feb 19 11:28:15 2019.
 Gaussian 09:  ES64L-G09RevE.01 30-Nov-2015

 ----------------------------------------------------------------------
 # M062X/Gen 6D SCF=Tight INT(grid=ultrafine) OPT IOP(2/17=4) SCRF=(SMD
 ,Solvent=h2o) Freq=Noraman maxdisk=2684354560 geom=check guess=read IO
 P(2/17=4)
 ----------------------------------------------------------------------

 ------------------------------------
 4SulfCF3_EtO.M062X_6-31pGd_opt_water
 ------------------------------------
 Structure from the checkpoint file:  "4SulfCF3_EtO.M062X_6-31pGd_opt_water.chk"
 Charge = -1 Multiplicity = 1

 SCF Done:  E(RM062X) =  -1576.98962568     A.U. after    1 cycles
 Optimization completed.
    -- Stationary point found.

 1\1\GINC-R4170\FOpt\RM062X\Gen\C14H18F3N2O3S1(1-)\ROOT\19-Feb-2019\0\\
 # M062X/Gen 6D SCF=Tight INT(grid=ultrafine) OPT IOP(2/17=4) SCRF=(SMD
 ,Solvent=h2o) Freq=Noraman maxdisk=2684354560 geom=check guess=read IO
 P(2/17=4)\\4SulfCF3_EtO.M062X_6-31pGd_opt_water\\-1,1\C,-1.7297754694,
 2.2652716508,0.3488036343\C,-0.3694338666,1.5868393875,0.2223474364\C,
 0.7432894257,2.6146058263,0.0749966022\N,2.0343809529,1.9528783219,-0.
 0439485772\C,3.1660882995,2.6717864571,-0.1785255737\O,3.1657780198,3.
 9170737127,-0.2064688821\N,4.3121181407,1.9096460265,-0.2817838256\C,5

 Normal termination of Gaussian 09 at Tue Feb 19 11:29:21 2019.

 ----------------------------------------------------------------------
 #N Geom=AllCheck Guess=TCheck SCRF=Check Test GenChk RM062X/ChkBas Fre
 q
 ----------------------------------------------------------------------

 Structure from the checkpoint file:  "4SulfCF3_EtO.M062X_6-31pGd_opt_water.chk"
 ------------------------------------
 4SulfCF3_EtO.M062X_6-31pGd_opt_water
 ------------------------------------
 Charge = -1 Multiplicity = 1

                         Standard orientation:
 ---------------------------------------------------------------------
 Center     Atomic      Atomic             Coordinates (Angstroms)
 Number     Number       Type             X           Y           Z
 ---------------------------------------------------------------------
      1          6           0        6.644343   -2.766242    0.561000
      2          6           0        5.580607   -1.691182    0.362245
      3          6           0        4.199207   -2.310288    0.205375
      4          7           0        3.195368   -1.273049    0.017251
      5          6           0        1.895682   -1.593435   -0.137248
      6          8           0        1.493516   -2.772274   -0.126147
      7          7           0        1.061151   -0.507379   -0.307388
      8          6           0       -0.320516   -0.501622   -0.473300
      9          6           0       -1.130408   -1.648949   -0.531153
     10          6           0       -0.927631    0.764318   -0.595386
     11          6           0       -2.297135    0.885029   -0.764455
     12          6           0       -3.099181   -0.260767   -0.808791
     13          6           0       -2.506303   -1.518840   -0.698319
     14          1           0        7.637380   -2.321260    0.674588
     15          1           0        6.676485   -3.448514   -0.295801
     16          1           0        6.436958   -3.361220    1.457450
     17          1           0        5.813063   -1.092690   -0.527248
     18          1           0        5.575321   -1.004895    1.218062
     19          1           0        3.953714   -2.905095    1.094059
     20          1           0        4.191769   -2.993184   -0.653498
     21          1           0        3.502278   -0.291448   -0.000980
     22          1           0        1.506590    0.422692   -0.275930
     23          1           0       -0.694749   -2.633573   -0.446902
     24          1           0       -0.307310    1.655499   -0.557978
     25          1           0       -2.744106    1.870643   -0.857823
     26         16           0       -4.859037   -0.117029   -1.043043
     27          6           0       -5.336144    0.019397    0.693020
     28          9           0       -4.806929    1.090703    1.304746
     29          9           0       -6.670438    0.131284    0.767777
     30          9           0       -4.978500   -1.046923    1.425499
     31          1           0       -3.121083   -2.413655   -0.738911
     32          8           0        4.283996    1.417690    0.018273
     33          8           0        2.174578    2.132619   -0.168132
     34          6           0        3.411848    2.336742   -0.008669
     35          6           0        3.913980    3.767736    0.162470
     36          6           0        2.837599    4.842781    0.121519
     37          1           0        4.662914    3.937747   -0.620436
     38          1           0        4.460699    3.801469    1.112564
     39          1           0        2.306241    4.835432   -0.835221
     40          1           0        3.283000    5.834010    0.252968
     41          1           0        2.100188    4.695577    0.916687
 ---------------------------------------------------------------------

 SCF Done:  E(RM062X) =  -1576.98962568     A.U. after    1 cycles

 The electronic state is 1-A.
 Alpha  occ. eigenvalues --  -89.95615 -25.31752 -25.31340 -25.31329 -19.61677
 Alpha  occ. eigenvalues --  -19.60589 -19.60196 -14.78847 -14.77138 -10.83463
 Alpha  occ. eigenvalues --  -10.68448 -10.64988 -10.61278 -10.58958 -10.57157
 Alpha  occ. eigenvalues --  -10.56805 -10.56779 -10.55736 -10.55451 -10.53815
 Alpha  occ. eigenvalues --  -10.53603 -10.52764 -10.52586  -8.30088  -6.22177
 Alpha  occ. eigenvalues --   -6.21912  -6.21465  -1.48163  -1.39002  -1.38548
 Alpha  occ. eigenvalues --   -1.17398  -1.16434  -1.06659  -1.05387  -1.02106
 Alpha  occ. eigenvalues --   -0.97159  -0.91113  -0.87661  -0.85708  -0.85508
 Alpha  occ. eigenvalues --   -0.83987  -0.79192  -0.76560  -0.72275  -0.71757
 Alpha  occ. eigenvalues --   -0.70855  -0.70365  -0.69826  -0.67822  -0.66327
 Alpha  occ. eigenvalues --   -0.64609  -0.62402  -0.61085  -0.58758  -0.58555
 Alpha  occ. eigenvalues --   -0.58316  -0.55254  -0.55157  -0.54394  -0.54089
 Alpha  occ. eigenvalues --   -0.53270  -0.53055  -0.52766  -0.52727  -0.52340
 Alpha  occ. eigenvalues --   -0.51666  -0.50893  -0.50068  -0.49839  -0.48896
 Alpha  occ. eigenvalues --   -0.47227  -0.46226  -0.46077  -0.45596  -0.44245
 Alpha  occ. eigenvalues --   -0.43883  -0.41805  -0.41688  -0.41488  -0.41128
 Alpha  occ. eigenvalues --   -0.39532  -0.39492  -0.38990  -0.37700  -0.35280
 Alpha  occ. eigenvalues --   -0.33781  -0.32868  -0.32728  -0.32269  -0.32117
 Alpha  occ. eigenvalues --   -0.31689  -0.26904
 Alpha virt. eigenvalues --   -0.00209   0.01225   0.01469   0.02544   0.02928
 Alpha virt. eigenvalues --    0.03401   0.03622   0.04113   0.04297   0.04502
 Alpha virt. eigenvalues --    0.04590   0.05331   0.05745   0.06280   0.06529

 Mulliken charges:
               1
     1  C   -0.817413
     2  C   -0.352649
     3  C   -0.215201
     4  N   -0.805973
     5  C    0.942433
     6  O   -0.750933
     7  N   -0.658333
     8  C   -0.127951
     9  C    0.220958
    10  C   -0.782929
    11  C    0.064313
    12  C   -0.134317
    13  C   -0.615641
    14  H    0.222762
    15  H    0.221311
    16  H    0.221200
    17  H    0.236109
    18  H    0.236189
    19  H    0.237862
    20  H    0.238010
    21  H    0.524913
    22  H    0.529296
    23  H    0.276621
    24  H    0.269305
    25  H    0.263804
    26  S    0.489592
    27  C    0.564134
    28  F   -0.282992
    29  F   -0.296940
    30  F   -0.281876
    31  H    0.261195
    32  O   -0.772696
    33  O   -0.798767
    34  C    0.777085
    35  C   -0.512247
    36  C   -0.744673
    37  H    0.245081
    38  H    0.245079
    39  H    0.222772
    40  H    0.218707
    41  H    0.222803
 Sum of Mulliken charges =  -1.00000

 Dipole moment (field-independent basis, Debye):
    X=             -5.5642    Y=              0.4520    Z=             -0.2187  Tot=              5.5868
 Quadrupole moment (field-independent basis, Debye-Ang):
   XX=           -196.8523   YY=           -161.1801   ZZ=           -148.7366
   XY=             -6.9646   XZ=              6.5607   YZ=             -0.1923

  Exact polarizability: 396.449 -15.574 303.973  13.622  -2.688 215.169
 Approx polarizability: 310.115  -6.702 257.590  10.519  -2.177 189.899

                      1                      2                      3
                      A                      A                      A
 Frequencies --     13.2688                20.8398                30.9386
 Red. masses --      8.1221                 5.9827                 2.9950
 Frc consts  --      0.0008                 0.0015                 0.0017
 IR Inten    --      0.1726                 0.8855                 0.0567

                      4                      5                      6
                      A                      A                      A
 Frequencies --     38.8625                40.4858                46.2663
 Red. masses --      3.6036                 6.1027                 7.5699
 Frc consts  --      0.0032                 0.0059                 0.0095
 IR Inten    --      1.6200                 4.0032                 3.3765

                      7                      8                      9
                      A                      A                      A
 Frequencies --     48.4539                54.1353                59.2679
 Red. masses --      4.5747                 4.4023                 2.1657
 Frc consts  --      0.0063                 0.0076                 0.0045
 IR Inten    --      4.4312                 1.1194                 2.6122

                     10                     11                     12
                      A                      A                      A
 Frequencies --     67.8276                70.0413                75.7167
 Red. masses --      4.7820                 5.4412                 6.6915
 Frc consts  --      0.0130                 0.0157                 0.0226
 IR Inten    --      5.6300                 1.5571                 0.3300

                     13                     14                     15
                      A                      A                      A
 Frequencies --     84.1069               105.5855               134.6689
 Red. masses --      5.2414                 4.3754                 7.5825
 Frc consts  --      0.0218                 0.0287                 0.0810
 IR Inten    --     15.8532                19.5023                36.1754

                     16                     17                     18
                      A                      A                      A
 Frequencies --    151.7226               170.2175               174.6505
 Red. masses --      3.5466                 4.8134                 5.4428
 Frc consts  --      0.0481                 0.0822                 0.0978
 IR Inten    --      9.5265                 9.7295                 9.0251

                     19                     20                     21
                      A                      A                      A
 Frequencies --    219.5958               240.9293               245.5452
 Red. masses --      7.0097                 1.1369                 1.0901
 Frc consts  --      0.1992                 0.0389                 0.0387
 IR Inten    --      0.4513                 0.0597                 1.5960

                     22                     23                     24
                      A                      A                      A
 Frequencies --    262.3486               302.7310               307.1007
 Red. masses --      5.6358                 8.2231                 3.9894
 Frc consts  --      0.2285                 0.4440                 0.2217
 IR Inten    --      4.2669                 0.0842                11.3405

                     25                     26                     27
                      A                      A                      A
 Frequencies --    335.4339               341.1914               354.4228
 Red. masses --      8.9136                 6.2758                 6.4070
 Frc consts  --      0.5909                 0.4304                 0.4742
 IR Inten    --      1.5067                 1.2918                35.1712

                     28                     29                     30
                      A                      A                      A
 Frequencies --    384.1544               424.2079               430.7098
 Red. masses --      6.0171                 3.0655                 6.4874
 Frc consts  --      0.5232                 0.3250                 0.7091
 IR Inten    --      4.7081                 0.1089                 1.7187

                     31                     32                     33
                      A                      A                      A
 Frequencies --    478.8803               519.9747               520.3512
 Red. masses --     14.4775                 5.3177                 5.5972
 Frc consts  --      1.9561                 0.8471                 0.8929
 IR Inten    --      7.1848                 1.7752                30.2257

                     34                     35                     36
                      A                      A                      A
 Frequencies --    528.8255               540.3659               574.1955
 Red. masses --      3.3266                17.9333                 8.1126
 Frc consts  --      0.5481                 3.0852                 1.5759
 IR Inten    --     39.4636                 3.2643                21.1896

                     37                     38                     39
                      A                      A                      A
 Frequencies --    581.2287               638.2502               641.7853
 Red. masses --      1.8942                 6.9406                 1.1471
 Frc consts  --      0.3770                 1.6658                 0.2784
 IR Inten    --      0.2615                 1.6149               171.0883

                     40                     41                     42
                      A                      A                      A
 Frequencies --    654.7491               699.3677               727.8328
 Red. masses --      4.8346                 6.6376                 3.9337
 Frc consts  --      1.2211                 1.9128                 1.2278
 IR Inten    --     58.4451                 8.6617                 6.4613

                     43                     44                     45
                      A                      A                      A
 Frequencies --    760.6632               768.6190               771.1094
 Red. masses --      1.4471                 1.7028                16.8614
 Frc consts  --      0.4933                 0.5927                 5.9071
 IR Inten    --     62.7079                67.3922                16.3481

                     46                     47                     48
                      A                      A                      A
 Frequencies --    780.4535               803.2283               818.8827
 Red. masses --      6.4629                 1.3711                 1.4959
 Frc consts  --      2.3194                 0.5212                 0.5910
 IR Inten    --      2.7637                87.1505                52.1535

                     49                     50                     51
                      A                      A                      A
 Frequencies --    854.2134               860.4510               869.9675
 Red. masses --      1.2494                 1.6549                 5.2033
 Frc consts  --      0.5372                 0.7219                 2.3203
 IR Inten    --      1.7071               124.1561                24.9730

                     52                     53                     54
                      A                      A                      A
 Frequencies --    887.6003               907.7967               932.2293
 Red. masses --      3.9172                 1.1524                 1.6614
 Frc consts  --      1.8183                 0.5595                 0.8507
 IR Inten    --     31.6429                 1.6798                 3.7773

                     55                     56                     57
                      A                      A                      A
 Frequencies --    988.2145              1005.6000              1021.1253
 Red. masses --      1.3067                 1.3465                 3.7680
 Frc consts  --      0.7519                 0.8022                 2.3148
 IR Inten    --      2.2530                 0.1954                 5.0083

                     58                     59                     60
                      A                      A                      A
 Frequencies --   1027.3901              1050.4882              1083.5983
 Red. masses --      1.6439                 4.3573                 2.5580
 Frc consts  --      1.0224                 2.8330                 1.7697
 IR Inten    --     14.9970                17.9186                 2.8759

                     61                     62                     63
                      A                      A                      A
 Frequencies --   1108.9913              1113.2124              1122.2319
 Red. masses --      1.7929                 2.3520                 3.1506
 Frc consts  --      1.2991                 1.7173                 2.3378
 IR Inten    --      2.0754                15.3364               153.5024

                     64                     65                     66
                      A                      A                      A
 Frequencies --   1142.5384              1148.5910              1158.9566
 Red. masses --      1.6132                 6.2678                 2.0299
 Frc consts  --      1.2408                 4.8719                 1.6064
 IR Inten    --     32.7217               570.1697                43.9952

                     67                     68                     69
                      A                      A                      A
 Frequencies --   1164.8234              1178.3524              1181.3153
 Red. masses --     11.5460                 3.6655                 1.6086
 Frc consts  --      9.2300                 2.9987                 1.3226
 IR Inten    --    403.9681                 5.0376                 0.1344

                     70                     71                     72
                      A                      A                      A
 Frequencies --   1193.2596              1207.0960              1281.0878
 Red. masses --     12.4105                 1.1585                 1.1929
 Frc consts  --     10.4114                 0.9946                 1.1535
 IR Inten    --    405.4027                25.9376                 1.0878

                     73                     74                     75
                      A                      A                      A
 Frequencies --   1291.1986              1291.3235              1315.9255
 Red. masses --      1.5499                 1.5472                 2.1949
 Frc consts  --      1.5224                 1.5201                 2.2394
 IR Inten    --    307.1013               300.2477                89.8460

                     76                     77                     78
                      A                      A                      A
 Frequencies --   1328.4142              1328.6843              1338.6014
 Red. masses --      1.0803                 1.3192                 1.7331
 Frc consts  --      1.1233                 1.3722                 1.8297
 IR Inten    --      0.2184                 0.3779                84.3423

                     79                     80                     81
                      A                      A                      A
 Frequencies --   1354.3171              1367.4762              1419.6954
 Red. masses --      1.9700                 3.0948                 1.3161
 Frc consts  --      2.1289                 3.4098                 1.5629
 IR Inten    --     24.0586               583.1048                29.0493

                     82                     83                     84
                      A                      A                      A
 Frequencies --   1420.7228              1432.4386              1449.8163
 Red. masses --      1.2781                 1.6937                 3.1917
 Frc consts  --      1.5199                 2.0476                 3.9527
 IR Inten    --     11.1414                38.8962                54.9495

                     85                     86                     87
                      A                      A                      A
 Frequencies --   1455.7265              1472.9496              1489.5026
 Red. masses --      1.3442                 2.7558                 1.0596
 Frc consts  --      1.6783                 3.5226                 1.3851
 IR Inten    --    172.2593               256.2444                 6.2983

                     88                     89                     90
                      A                      A                      A
 Frequencies --   1501.2026              1503.6539              1507.6907
 Red. masses --      1.0398                 1.0397                 1.1244
 Frc consts  --      1.3807                 1.3850                 1.5059
 IR Inten    --     11.1447                11.4932                82.3188

                     91                     92                     93
                      A                      A                      A
 Frequencies --   1512.1536              1531.4905              1545.1940
 Red. masses --      1.0831                 1.0928                 2.4924
 Frc consts  --      1.4592                 1.5101                 3.5062
 IR Inten    --      2.4691                43.8866               414.0811

                     94                     95                     96
                      A                      A                      A
 Frequencies --   1557.9594              1585.0806              1604.6110
 Red. masses --      6.3642                 2.9733                 2.1077
 Frc consts  --      9.1013                 4.4015                 3.1973
 IR Inten    --    646.6225               411.8271              2075.8433

                     97                     98                     99
                      A                      A                      A
 Frequencies --   1650.8294              1678.9542              1711.8590
 Red. masses --      7.0985                 4.8706                 2.1256
 Frc consts  --     11.3977                 8.0893                 3.6701
 IR Inten    --    273.8042                86.0905               624.3244

                    100                    101                    102
                      A                      A                      A
 Frequencies --   3068.2106              3075.7714              3077.2303
 Red. masses --      1.0584                 1.0435                 1.0523
 Frc consts  --      5.8704                 5.8162                 5.8711
 IR Inten    --     34.2291                13.2370               126.6627

                    103                    104                    105
                      A                      A                      A
 Frequencies --   3082.6028              3084.0850              3099.2533
 Red. masses --      1.0524                 1.0455                 1.1045
 Frc consts  --      5.8921                 5.8588                 6.2506
 IR Inten    --     56.0824                11.5375                12.8729

                    106                    107                    108
                      A                      A                      A
 Frequencies --   3119.3942              3120.3836              3145.8718
 Red. masses --      1.1016                 1.1060                 1.1039
 Frc consts  --      6.3154                 6.3449                 6.4365
 IR Inten    --      8.6033                52.8785                96.6455

                    109                    110                    111
                      A                      A                      A
 Frequencies --   3153.6026              3155.1174              3158.5314
 Red. masses --      1.1024                 1.1022                 1.1036
 Frc consts  --      6.4596                 6.4645                 6.4870
 IR Inten    --     53.0817                49.5804                58.3668

                    112                    113                    114
                      A                      A                      A
 Frequencies --   3232.6436              3236.6141              3244.2209
 Red. masses --      1.0896                 1.0926                 1.0963
 Frc consts  --      6.7089                 6.7436                 6.7985
 IR Inten    --      1.5315                 5.5092                 0.1522

                    115                    116                    117
                      A                      A                      A
 Frequencies --   3263.0575              3308.0571              3325.1729
 Red. masses --      1.0880                 1.0923                 1.0872
 Frc consts  --      6.8253                 7.0424                 7.0828
 IR Inten    --    858.4826                 5.6336              1622.0308

 - Thermochemistry -
 -------------------
 Temperature   298.150 Kelvin.  Pressure   1.00000 Atm.
 Atom     1 has atomic number  6 and mass  12.00000

 Molecular mass:   351.09902 amu.
 Principal axes and moments of inertia in atomic units:
                           1         2         3
     Eigenvalues --  5242.99015********************
           X            0.99996  -0.00404   0.00800
           Y            0.00407   0.99999  -0.00325
           Z           -0.00799   0.00328   0.99996
 This molecule is an asymmetric top.
 Rotational symmetry number  1.
 Warning -- assumption of classical behavior for rotation
           may cause significant error
 Rotational temperatures (Kelvin)      0.01652     0.00420     0.00352
 Rotational constants (GHZ):           0.34422     0.08754     0.07329
 Zero-point vibrational energy     832185.9 (Joules/Mol)
                                  198.89719 (Kcal/Mol)
 Warning -- explicit consideration of  37 degrees of freedom as
           vibrations may cause significant error
 Vibrational temperatures:     19.09    29.98    44.51    55.91    58.25
          (Kelvin)             66.57    69.71    77.89    85.27    97.59
                              100.77   108.94   121.01   151.91   193.76
                              218.29   244.90   251.28   315.95   346.64
                              353.28   377.46   435.56   441.85   482.61
                              490.90   509.93   552.71   610.34   619.69
                              689.00   748.13   748.67   760.86   777.47
                              826.14   836.26   918.30   923.38   942.04
                             1006.23  1047.19  1094.42  1105.87  1109.45
                             1122.90  1155.66  1178.19  1229.02  1238.00
                             1251.69  1277.06  1306.12  1341.27  1421.82
                             1446.83  1469.17  1478.18  1511.42  1559.05
                             1595.59  1601.66  1614.64  1643.86  1652.56
                             1667.48  1675.92  1695.38  1699.65  1716.83
                             1736.74  1843.20  1857.74  1857.92  1893.32
                             1911.29  1911.68  1925.95  1948.56  1967.49
                             2042.62  2044.10  2060.96  2085.96  2094.46
                             2119.24  2143.06  2159.89  2163.42  2169.23
                             2175.65  2203.47  2223.19  2241.55  2280.57
                             2308.67  2375.17  2415.64  2462.98  4414.47
                             4425.34  4427.44  4435.17  4437.30  4459.13
                             4488.11  4489.53  4526.20  4537.33  4539.50
                             4544.42  4651.05  4656.76  4667.70  4694.81
                             4759.55  4784.18

 Zero-point correction=                           0.316963 (Hartree/Particle)
 Thermal correction to Energy=                    0.342196
 Thermal correction to Enthalpy=                  0.343140
 Thermal correction to Gibbs Free Energy=         0.255410
 Sum of electronic and zero-point Energies=          -1576.672663
 Sum of electronic and thermal Energies=             -1576.647430
 Sum of electronic and thermal Enthalpies=           -1576.646486
 Sum of electronic and thermal Free Energies=        -1576.734216

                     E (Thermal)             CV                S
                      KCal/Mol        Cal/Mol-Kelvin    Cal/Mol-Kelvin
 Total                  214.731             87.787            184.643
 Electronic               0.000              0.000              0.000
 Translational            0.889              2.981             43.462
 Rotational               0.889              2.981             36.230
 Vibrational            212.953             81.825            104.951
 Vibration     1          0.593              1.987              7.449
 Vibration     2          0.593              1.986              6.553
 Vibration     3          0.594              1.984              5.768
 Vibration     4          0.594              1.981              5.316
 Vibration     5          0.594              1.981              5.235
 Vibration     6          0.595              1.979              4.971
 Vibration     7          0.595              1.978              4.880
 Vibration     8          0.596              1.976              4.660
 Vibration     9          0.597              1.974              4.481
 Vibration    10          0.598              1.970              4.215
 Vibration    11          0.598              1.968              4.152
 Vibration    12          0.599              1.965              3.999
 Vibration    13          0.601              1.960              3.793
 Vibration    14          0.605              1.945              3.349
 Vibration    15          0.613              1.919              2.878
 Vibration    16          0.619              1.901              2.651
 Vibration    17          0.625              1.879              2.433
 Vibration    18          0.627              1.874              2.385
 Vibration    19          0.647              1.811              1.962
 Vibration    20          0.658              1.778              1.796
 Vibration    21          0.660              1.770              1.762
 Vibration    22          0.670              1.742              1.646
 Vibration    23          0.694              1.669              1.402
 Vibration    24          0.697              1.660              1.378
 Vibration    25          0.717              1.605              1.234
 Vibration    26          0.721              1.593              1.207
 Vibration    27          0.730              1.566              1.146
 Vibration    28          0.753              1.504              1.023
 Vibration    29          0.786              1.418              0.878
 Vibration    30          0.792              1.403              0.856
 Vibration    31          0.835              1.297              0.713
 Vibration    32          0.875              1.206              0.610
 Vibration    33          0.875              1.205              0.609
 Vibration    34          0.884              1.186              0.590
 Vibration    35          0.895              1.161              0.565
 Vibration    36          0.931              1.087              0.496
 Vibration    37          0.938              1.072              0.483

 1\1\GINC-R4170\Freq\RM062X\Gen\C14H18F3N2O3S1(1-)\ROOT\19-Feb-2019\0\\
 #N Geom=AllCheck Guess=TCheck SCRF=Check Test GenChk RM062X/ChkBas Fre
 q\\4SulfCF3_EtO.M062X_6-31pGd_opt_water\\-1,1\C,-1.7297754694,2.265271
 6508,0.3488036343\C,-0.3694338666,1.5868393875,0.2223474364\C,0.743289
 4257,2.6146058263,0.0749966022\N,2.0343809529,1.9528783219,-0.04394857
 72\C,3.1660882995,2.6717864571,-0.1785255737\O,3.1657780198,3.91707371
 27,-0.2064688821\N,4.3121181407,1.9096460265,-0.2817838256\C,5.6269970
 466,2.3463308702,-0.4120351775\C,6.0250737971,3.6916647983,-0.49713928

 Normal termination of Gaussian 09 at Tue Feb 19 12:32:14 2019.
