 Gaussian 09, Revision E.01,

 ----------------------------------------------------------------------
 # M062X/Gen 6D SCF=Tight INT(grid=ultrafine) OPT IOP(2/17=4) SCRF=(SMD
 ,Solvent=n-Pentadecane) maxdisk=2684354560
 ----------------------------------------------------------------------

 ------------------------------------------
 4SulfCF3_EtO.M062X_6-31pGd_opt_Pentadecane
 ------------------------------------------
 Symbolic Z-matrix:
 Charge = -1 Multiplicity = 1

 SCF Done:  E(RM062X) =  -1576.90434890     A.U. after   16 cycles
 SCF Done:  E(RM062X) =  -1576.94126121     A.U. after   13 cycles
 SCF Done:  E(RM062X) =  -1576.95363746     A.U. after   15 cycles
 SCF Done:  E(RM062X) =  -1576.95623917     A.U. after   15 cycles
 SCF Done:  E(RM062X) =  -1576.95590454     A.U. after   15 cycles
 SCF Done:  E(RM062X) =  -1576.95694340     A.U. after   12 cycles
 SCF Done:  E(RM062X) =  -1576.95717709     A.U. after   14 cycles
 SCF Done:  E(RM062X) =  -1576.95756773     A.U. after   13 cycles
 SCF Done:  E(RM062X) =  -1576.95769737     A.U. after   13 cycles
 SCF Done:  E(RM062X) =  -1576.95770112     A.U. after   11 cycles
 SCF Done:  E(RM062X) =  -1576.95772726     A.U. after    9 cycles
 SCF Done:  E(RM062X) =  -1576.95772745     A.U. after    9 cycles
 SCF Done:  E(RM062X) =  -1576.95772762     A.U. after    9 cycles
 SCF Done:  E(RM062X) =  -1576.95772775     A.U. after   10 cycles
 SCF Done:  E(RM062X) =  -1576.95772795     A.U. after    9 cycles
 SCF Done:  E(RM062X) =  -1576.95772817     A.U. after   10 cycles
 SCF Done:  E(RM062X) =  -1576.95772823     A.U. after    9 cycles
 SCF Done:  E(RM062X) =  -1576.95772825     A.U. after    8 cycles
 Optimization completed.
    -- Stationary point found.

 1\1\GINC-R3806\FOpt\RM062X\Gen\C14H18F3N2O3S1(1-)\ROOT\19-Feb-2019\0\\
 # M062X/Gen 6D SCF=Tight INT(grid=ultrafine) OPT IOP(2/17=4) SCRF=(SMD
 ,Solvent=n-Pentadecane) maxdisk=2684354560\\4SulfCF3_EtO.M062X_6-31pGd
 _opt_Pentadecane\\-1,1\C,-1.7597193291,2.2774136135,0.2886467156\C,-0.
 3944270902,1.6020180517,0.1980731078\C,0.7287891746,2.6235383441,0.066
 4906411\N,2.0080301345,1.9497367536,-0.0076369827\C,3.1462843562,2.666
 2995133,-0.1480534756\O,3.1598281824,3.8988661679,-0.2277264682\N,4.28
 6470764,1.8752927545,-0.1916269013\C,5.593753235,2.29153203,-0.3374517

 Normal termination of Gaussian 09 at Tue Feb 19 11:30:02 2019.
 Gaussian 09:  ES64L-G09RevE.01 30-Nov-2015

 ----------------------------------------------------------------------
 # M062X/Gen 6D SCF=Tight INT(grid=ultrafine) OPT IOP(2/17=4) SCRF=(SMD
 ,Solvent=n-Pentadecane) Freq=Noraman maxdisk=2684354560 geom=check gue
 ss=read IOP(2/17=4)
 ----------------------------------------------------------------------

 ------------------------------------------
 4SulfCF3_EtO.M062X_6-31pGd_opt_Pentadecane
 ------------------------------------------
 Structure from the checkpoint file:  "4SulfCF3_EtO.M062X_6-31pGd_opt_Pentadecane.chk"
 Charge = -1 Multiplicity = 1

 SCF Done:  E(RM062X) =  -1576.95772825     A.U. after    1 cycles
 Optimization completed.
    -- Stationary point found.

 1\1\GINC-R3806\FOpt\RM062X\Gen\C14H18F3N2O3S1(1-)\ROOT\19-Feb-2019\0\\
 # M062X/Gen 6D SCF=Tight INT(grid=ultrafine) OPT IOP(2/17=4) SCRF=(SMD
 ,Solvent=n-Pentadecane) Freq=Noraman maxdisk=2684354560 geom=check gue
 ss=read IOP(2/17=4)\\4SulfCF3_EtO.M062X_6-31pGd_opt_Pentadecane\\-1,1\
 C,-1.7597193291,2.2774136135,0.2886467156\C,-0.3944270902,1.6020180517
 ,0.1980731078\C,0.7287891746,2.6235383441,0.0664906411\N,2.0080301345,
 1.9497367536,-0.0076369827\C,3.1462843562,2.6662995133,-0.1480534756\O
 ,3.1598281824,3.8988661679,-0.2277264682\N,4.286470764,1.8752927545,-0

 Normal termination of Gaussian 09 at Tue Feb 19 11:31:07 2019.

 ----------------------------------------------------------------------
 #N Geom=AllCheck Guess=TCheck SCRF=Check Test GenChk RM062X/ChkBas Fre
 q
 ----------------------------------------------------------------------

 Structure from the checkpoint file:  "4SulfCF3_EtO.M062X_6-31pGd_opt_Pentadecane.chk"
 ------------------------------------------
 4SulfCF3_EtO.M062X_6-31pGd_opt_Pentadecane
 ------------------------------------------
 Charge = -1 Multiplicity = 1

                         Standard orientation:
 ---------------------------------------------------------------------
 Center     Atomic      Atomic             Coordinates (Angstroms)
 Number     Number       Type             X           Y           Z
 ---------------------------------------------------------------------
      1          6           0        6.707706   -2.721640    0.472495
      2          6           0        5.624882   -1.658045    0.315513
      3          6           0        4.241830   -2.282465    0.175155
      4          7           0        3.239824   -1.246596    0.037604
      5          6           0        1.938136   -1.577159   -0.120951
      6          8           0        1.541429   -2.746097   -0.165216
      7          7           0        1.104119   -0.472231   -0.226607
      8          6           0       -0.263946   -0.465168   -0.405092
      9          6           0       -1.067572   -1.616860   -0.525281
     10          6           0       -0.883014    0.803540   -0.475269
     11          6           0       -2.249324    0.916819   -0.661566
     12          6           0       -3.043718   -0.231265   -0.776077
     13          6           0       -2.438993   -1.488639   -0.711760
     14          1           0        7.699024   -2.267185    0.570847
     15          1           0        6.732146   -3.392207   -0.394764
     16          1           0        6.532113   -3.336643    1.363144
     17          1           0        5.828239   -1.035036   -0.563654
     18          1           0        5.627998   -0.981427    1.178434
     19          1           0        4.019398   -2.907452    1.051815
     20          1           0        4.214392   -2.949134   -0.698169
     21          1           0        3.542292   -0.256092    0.066995
     22          1           0        1.547274    0.468118   -0.170970
     23          1           0       -0.607104   -2.593483   -0.473509
     24          1           0       -0.260400    1.690046   -0.382887
     25          1           0       -2.708722    1.900142   -0.714492
     26         16           0       -4.793065   -0.089177   -1.062857
     27          6           0       -5.368487   -0.053543    0.648536
     28          9           0       -4.889011    0.983174    1.351884
     29          9           0       -6.709933    0.051130    0.647935
     30          9           0       -5.055944   -1.158723    1.341536
     31          1           0       -3.049529   -2.382925   -0.805407
     32          8           0        4.185457    1.414051    0.133715
     33          8           0        2.074490    2.132147   -0.106452
     34          6           0        3.312034    2.316131    0.050515
     35          6           0        3.815015    3.762894    0.156826
     36          6           0        2.735919    4.826656    0.007353
     37          1           0        4.598372    3.888893   -0.600625
     38          1           0        4.320885    3.853953    1.126422
     39          1           0        2.239684    4.746584   -0.964674
     40          1           0        3.161096    5.833806    0.095032
     41          1           0        1.964474    4.710110    0.774232
 ---------------------------------------------------------------------

 SCF Done:  E(RM062X) =  -1576.95772825     A.U. after    1 cycles

 The electronic state is 1-A.
 Alpha  occ. eigenvalues --  -89.91166 -25.27504 -25.26982 -25.26969 -19.54305
 Alpha  occ. eigenvalues --  -19.52568 -19.52079 -14.71907 -14.70118 -10.79033
 Alpha  occ. eigenvalues --  -10.61232 -10.57149 -10.55427 -10.53782 -10.51874
 Alpha  occ. eigenvalues --  -10.51743 -10.51720 -10.50036 -10.49777 -10.49256
 Alpha  occ. eigenvalues --  -10.49113 -10.47910 -10.47675  -8.25627  -6.17723
 Alpha  occ. eigenvalues --   -6.17445  -6.17017  -1.43807  -1.34631  -1.34207
 Alpha  occ. eigenvalues --   -1.10402  -1.08648  -0.99105  -0.98597  -0.95627
 Alpha  occ. eigenvalues --   -0.91769  -0.86080  -0.82810  -0.80146  -0.79967
 Alpha  occ. eigenvalues --   -0.78804  -0.74400  -0.71606  -0.66584  -0.66387
 Alpha  occ. eigenvalues --   -0.66089  -0.65914  -0.64769  -0.62608  -0.60468
 Alpha  occ. eigenvalues --   -0.59537  -0.55955  -0.55152  -0.54210  -0.54019
 Alpha  occ. eigenvalues --   -0.51584  -0.50447  -0.49969  -0.49770  -0.48789
 Alpha  occ. eigenvalues --   -0.48009  -0.47751  -0.47030  -0.46571  -0.45845
 Alpha  occ. eigenvalues --   -0.45657  -0.44887  -0.44533  -0.43400  -0.42772
 Alpha  occ. eigenvalues --   -0.42103  -0.41028  -0.40727  -0.39318  -0.38665
 Alpha  occ. eigenvalues --   -0.38430  -0.37184  -0.36594  -0.36101  -0.35646
 Alpha  occ. eigenvalues --   -0.34770  -0.34398  -0.33804  -0.31673  -0.28535
 Alpha  occ. eigenvalues --   -0.27725  -0.26514  -0.25488  -0.24812  -0.24774
 Alpha  occ. eigenvalues --   -0.24267  -0.20647
 Alpha virt. eigenvalues --    0.04978   0.05528   0.06587   0.06636   0.06923
 Alpha virt. eigenvalues --    0.07187   0.07653   0.07912   0.08411   0.08667
 Alpha virt. eigenvalues --    0.09025   0.09178   0.09766   0.10356   0.10619

 Mulliken charges:
               1
     1  C   -0.807755
     2  C   -0.343458
     3  C   -0.200859
     4  N   -0.806058
     5  C    0.861838
     6  O   -0.627454
     7  N   -0.661956
     8  C    0.033814
     9  C    0.203480
    10  C   -0.799590
    11  C    0.119388
    12  C   -0.202615
    13  C   -0.675351
    14  H    0.207868
    15  H    0.206958
    16  H    0.207424
    17  H    0.236665
    18  H    0.238292
    19  H    0.216158
    20  H    0.216652
    21  H    0.528196
    22  H    0.516529
    23  H    0.271402
    24  H    0.275372
    25  H    0.227474
    26  S    0.469605
    27  C    0.555145
    28  F   -0.279338
    29  F   -0.303632
    30  F   -0.279267
    31  H    0.224218
    32  O   -0.651560
    33  O   -0.692844
    34  C    0.682340
    35  C   -0.495867
    36  C   -0.724716
    37  H    0.216311
    38  H    0.217135
    39  H    0.216343
    40  H    0.185680
    41  H    0.218032
 Sum of Mulliken charges =  -1.00000

 Dipole moment (field-independent basis, Debye):
    X=             -3.8865    Y=             -0.1865    Z=             -0.2204  Tot=              3.8972
 Quadrupole moment (field-independent basis, Debye-Ang):
   XX=           -207.4871   YY=           -167.8559   ZZ=           -149.9539
   XY=             -7.1546   XZ=              3.0909   YZ=             -0.4729

  Exact polarizability: 355.875 -13.466 247.114  14.636  -0.222 164.386
 Approx polarizability: 318.583  -6.996 260.928  12.513   0.114 191.926

                      1                      2                      3
                      A                      A                      A
 Frequencies --     19.6158                20.4376                28.7868
 Red. masses --      9.0848                 4.7426                 3.3153
 Frc consts  --      0.0021                 0.0012                 0.0016
 IR Inten    --      0.0687                 0.8830                 0.9960

                      4                      5                      6
                      A                      A                      A
 Frequencies --     33.2538                39.8106                47.0271
 Red. masses --     11.7396                 5.7382                 4.2310
 Frc consts  --      0.0076                 0.0054                 0.0055
 IR Inten    --      0.1043                 0.4345                 2.0267

                      7                      8                      9
                      A                      A                      A
 Frequencies --     54.6752                60.2107                67.7971
 Red. masses --      4.7735                 3.7223                 2.9682
 Frc consts  --      0.0084                 0.0080                 0.0080
 IR Inten    --      1.3414                 0.8880                 2.1391

                     10                     11                     12
                      A                      A                      A
 Frequencies --     72.9746                82.0905                83.9215
 Red. masses --      2.4744                 5.1988                 4.2428
 Frc consts  --      0.0078                 0.0206                 0.0176
 IR Inten    --      1.4947                 7.8315                 1.4173

                     13                     14                     15
                      A                      A                      A
 Frequencies --     86.0304               111.8272               151.9680
 Red. masses --      5.2993                 6.4160                 3.9487
 Frc consts  --      0.0231                 0.0473                 0.0537
 IR Inten    --      0.9479                 6.6069                 2.7843

                     16                     17                     18
                      A                      A                      A
 Frequencies --    156.9788               181.5058               188.1092
 Red. masses --      6.8384                 5.0853                 4.6796
 Frc consts  --      0.0993                 0.0987                 0.0976
 IR Inten    --     31.8265                14.2252                 5.5557

                     19                     20                     21
                      A                      A                      A
 Frequencies --    220.3780               220.9656               234.9979
 Red. masses --      2.1461                 1.8019                 1.1514
 Frc consts  --      0.0614                 0.0518                 0.0375
 IR Inten    --      0.7250                 0.6786                 0.0167

                     22                     23                     24
                      A                      A                      A
 Frequencies --    264.9763               302.4652               305.5441
 Red. masses --      5.6204                 8.3081                 4.0460
 Frc consts  --      0.2325                 0.4478                 0.2225
 IR Inten    --      3.2093                 0.0497                17.4288

                     25                     26                     27
                      A                      A                      A
 Frequencies --    335.9953               340.1292               353.8743
 Red. masses --      8.4636                 6.4659                 6.4561
 Frc consts  --      0.5629                 0.4407                 0.4763
 IR Inten    --      1.1960                 1.8853                29.0694

                     28                     29                     30
                      A                      A                      A
 Frequencies --    386.3866               429.1412               433.6526
 Red. masses --      5.9526                 3.1581                 6.7869
 Frc consts  --      0.5236                 0.3427                 0.7520
 IR Inten    --      5.2046                 0.1239                 2.4515

                     31                     32                     33
                      A                      A                      A
 Frequencies --    479.9143               518.8554               524.3308
 Red. masses --     15.4871                 5.7040                 5.3270
 Frc consts  --      2.1016                 0.9047                 0.8629
 IR Inten    --      5.6626                18.8931                 7.6423

                     34                     35                     36
                      A                      A                      A
 Frequencies --    531.9307               542.3049               575.9573
 Red. masses --      3.5258                17.9480                 8.1924
 Frc consts  --      0.5878                 3.1099                 1.6012
 IR Inten    --     20.3834                 1.7646                15.0132

                     37                     38                     39
                      A                      A                      A
 Frequencies --    586.3419               640.2235               658.2761
 Red. masses --      1.9679                 7.1172                 4.6425
 Frc consts  --      0.3986                 1.7188                 1.1853
 IR Inten    --      0.7410                 0.6208                51.3014

                     40                     41                     42
                      A                      A                      A
 Frequencies --    698.9721               728.0202               753.0020
 Red. masses --      6.6544                 4.1367                 1.2832
 Frc consts  --      1.9155                 1.2918                 0.4287
 IR Inten    --      3.9167                 1.8070                18.6096

                     43                     44                     45
                      A                      A                      A
 Frequencies --    764.9510               771.2311               780.7411
 Red. masses --      2.0485                17.2703                 6.8339
 Frc consts  --      0.7062                 6.0523                 2.4543
 IR Inten    --     33.9757                11.2457                 3.3015

                     46                     47                     48
                      A                      A                      A
 Frequencies --    807.3863               826.5492               863.0081
 Red. masses --      1.4366                 1.4395                 1.2604
 Frc consts  --      0.5518                 0.5794                 0.5531
 IR Inten    --      2.4266                10.1795                19.4822

                     49                     50                     51
                      A                      A                      A
 Frequencies --    871.3801               874.2660               891.4357
 Red. masses --      5.1014                 1.5515                 3.9704
 Frc consts  --      2.2822                 0.6987                 1.8590
 IR Inten    --     43.9313                33.4947                28.7848

                     52                     53                     54
                      A                      A                      A
 Frequencies --    905.1983               930.7918               954.2781
 Red. masses --      1.1550                 1.7086                 1.0840
 Frc consts  --      0.5576                 0.8721                 0.5816
 IR Inten    --      6.7506                 3.4369               100.1610

                     55                     56                     57
                      A                      A                      A
 Frequencies --    995.3329              1014.8098              1021.8463
 Red. masses --      1.2841                 1.3199                 3.8135
 Frc consts  --      0.7495                 0.8009                 2.3461
 IR Inten    --      7.0909                 4.8261                 6.2422

                     58                     59                     60
                      A                      A                      A
 Frequencies --   1025.2659              1051.8853              1084.2890
 Red. masses --      1.6609                 4.1663                 2.6365
 Frc consts  --      1.0287                 2.7161                 1.8263
 IR Inten    --      5.4818                23.0205                 3.6131

                     61                     62                     63
                      A                      A                      A
 Frequencies --   1108.3604              1113.6528              1125.6649
 Red. masses --      1.7717                 2.3735                 2.8657
 Frc consts  --      1.2824                 1.7343                 2.1394
 IR Inten    --      0.5792                 7.1986                44.6841

                     64                     65                     66
                      A                      A                      A
 Frequencies --   1148.9091              1159.7284              1162.0166
 Red. masses --      1.5707                 7.8323                 1.9447
 Frc consts  --      1.2216                 6.2066                 1.5471
 IR Inten    --     15.7647               656.9780                26.6318

                     67                     68                     69
                      A                      A                      A
 Frequencies --   1183.4384              1191.7522              1194.4083
 Red. masses --      1.6041                 4.0601                12.4773
 Frc consts  --      1.3236                 3.3975                10.4876
 IR Inten    --      0.2657                 5.0128               254.6836

                     70                     71                     72
                      A                      A                      A
 Frequencies --   1203.9845              1214.9846              1276.5034
 Red. masses --     12.6736                 1.1847                 1.1914
 Frc consts  --     10.8241                 1.0304                 1.1438
 IR Inten    --    253.7814                43.4067                 0.1123

                     73                     74                     75
                      A                      A                      A
 Frequencies --   1288.4313              1302.2786              1323.5240
 Red. masses --      1.1835                 2.2177                 2.1685
 Frc consts  --      1.1576                 2.2160                 2.2381
 IR Inten    --      0.0888               454.3919                39.3124

                     76                     77                     78
                      A                      A                      A
 Frequencies --   1329.6388              1332.4452              1337.5321
 Red. masses --      1.0923                 1.3067                 1.6564
 Frc consts  --      1.1378                 1.3669                 1.7459
 IR Inten    --      1.5718                 0.4902                36.6812

                     79                     80                     81
                      A                      A                      A
 Frequencies --   1367.1035              1381.8987              1425.3074
 Red. masses --      2.1469                 3.5073                 1.3213
 Frc consts  --      2.3641                 3.9462                 1.5815
 IR Inten    --    278.5329               445.6886                18.4646

                     82                     83                     84
                      A                      A                      A
 Frequencies --   1426.3560              1435.9741              1462.5867
 Red. masses --      1.3770                 1.5690                 3.2624
 Frc consts  --      1.6506                 1.9062                 4.1118
 IR Inten    --     24.6278                 7.8295                17.1823

                     85                     86                     87
                      A                      A                      A
 Frequencies --   1472.9756              1487.3371              1504.2227
 Red. masses --      2.7991                 1.3643                 1.0725
 Frc consts  --      3.5781                 1.7782                 1.4297
 IR Inten    --    366.1837                60.8763                 9.9328

                     88                     89                     90
                      A                      A                      A
 Frequencies --   1509.4335              1518.5588              1521.2297
 Red. masses --      1.0410                 1.0395                 1.1062
 Frc consts  --      1.3974                 1.4124                 1.5083
 IR Inten    --      8.0053                 8.6310                67.3387

                     91                     92                     93
                      A                      A                      A
 Frequencies --   1524.0715              1540.4240              1554.9011
 Red. masses --      1.0715                 1.0872                 2.5882
 Frc consts  --      1.4665                 1.5199                 3.6868
 IR Inten    --      1.9081                22.0752               300.6960

                     94                     95                     96
                      A                      A                      A
 Frequencies --   1604.5076              1631.9868              1666.9016
 Red. masses --      3.5557                 2.2596                 6.2599
 Frc consts  --      5.3933                 3.5458                10.2479
 IR Inten    --    213.9383                76.5046               785.5086

                     97                     98                     99
                      A                      A                      A
 Frequencies --   1679.9506              1708.9043              1780.8581
 Red. masses --      2.7041                 3.3117                 2.9284
 Frc consts  --      4.4965                 5.6981                 5.4720
 IR Inten    --    397.7149               808.3354               438.5697

                    100                    101                    102
                      A                      A                      A
 Frequencies --   3047.2011              3068.4613              3071.5406
 Red. masses --      1.0581                 1.0367                 1.0484
 Frc consts  --      5.7888                 5.7511                 5.8278
 IR Inten    --     86.0063                53.1388                56.6532

                    103                    104                    105
                      A                      A                      A
 Frequencies --   3073.0793              3076.3232              3084.3498
 Red. masses --      1.1048                 1.0596                 1.0831
 Frc consts  --      6.1471                 5.9080                 6.0710
 IR Inten    --     33.5062               344.4558               507.2741

                    106                    107                    108
                      A                      A                      A
 Frequencies --   3085.2790              3110.3183              3118.6043
 Red. masses --      1.0657                 1.1011                 1.1033
 Frc consts  --      5.9770                 6.2763                 6.3220
 IR Inten    --    222.2476                15.2185                 0.9719

                    109                    110                    111
                      A                      A                      A
 Frequencies --   3140.7593              3140.9756              3144.1453
 Red. masses --      1.0977                 1.1040                 1.1012
 Frc consts  --      6.3800                 6.4171                 6.4141
 IR Inten    --     46.0795                79.5025                38.1199

                    112                    113                    114
                      A                      A                      A
 Frequencies --   3160.8920              3195.1151              3222.7839
 Red. masses --      1.1026                 1.0917                 1.0893
 Frc consts  --      6.4907                 6.5667                 6.6660
 IR Inten    --     43.4491              1908.9998                38.0053

                    115                    116                    117
                      A                      A                      A
 Frequencies --   3227.9321              3234.9547              3299.8464
 Red. masses --      1.0914                 1.0960                 1.0919
 Frc consts  --      6.6999                 6.7578                 7.0050
 IR Inten    --      1.8827                 9.6031                 7.7138

 - Thermochemistry -
 -------------------
 Temperature   298.150 Kelvin.  Pressure   1.00000 Atm.
 Atom     1 has atomic number  6 and mass  12.00000

 Molecular mass:   351.09902 amu.
 Principal axes and moments of inertia in atomic units:
                           1         2         3
     Eigenvalues --  5137.72859********************
           X            0.99996  -0.00490   0.00717
           Y            0.00492   0.99998  -0.00302
           Z           -0.00715   0.00306   0.99997
 This molecule is an asymmetric top.
 Rotational symmetry number  1.
 Warning -- assumption of classical behavior for rotation
           may cause significant error
 Rotational temperatures (Kelvin)      0.01686     0.00421     0.00353
 Rotational constants (GHZ):           0.35127     0.08778     0.07352
 Zero-point vibrational energy     835553.3 (Joules/Mol)
                                  199.70203 (Kcal/Mol)
 Warning -- explicit consideration of  37 degrees of freedom as
           vibrations may cause significant error
 Vibrational temperatures:     28.22    29.41    41.42    47.84    57.28
          (Kelvin)             67.66    78.67    86.63    97.54   104.99
                              118.11   120.74   123.78   160.89   218.65
                              225.86   261.15   270.65   317.07   317.92
                              338.11   381.24   435.18   439.61   483.42
                              489.37   509.15   555.92   617.44   623.93
                              690.49   746.52   754.39   765.33   780.25
                              828.67   843.61   921.14   947.11  1005.66
                             1047.46  1083.40  1100.59  1109.63  1123.31
                             1161.65  1189.22  1241.67  1253.72  1257.87
                             1282.58  1302.38  1339.20  1372.99  1432.06
                             1460.08  1470.21  1475.13  1513.43  1560.05
                             1594.68  1602.30  1619.58  1653.02  1668.59
                             1671.88  1702.70  1714.66  1718.48  1732.26
                             1748.09  1836.60  1853.76  1873.69  1904.25
                             1913.05  1917.09  1924.41  1966.95  1988.24
                             2050.70  2052.21  2066.04  2104.33  2119.28
                             2139.94  2164.24  2171.74  2184.86  2188.71
                             2192.80  2216.32  2237.15  2308.53  2348.06
                             2398.30  2417.07  2458.73  2562.25  4384.24
                             4414.83  4419.26  4421.47  4426.14  4437.69
                             4439.02  4475.05  4486.97  4518.85  4519.16
                             4523.72  4547.81  4597.05  4636.86  4644.27
                             4654.37  4747.74

 Zero-point correction=                           0.318245 (Hartree/Particle)
 Thermal correction to Energy=                    0.343197
 Thermal correction to Enthalpy=                  0.344141
 Thermal correction to Gibbs Free Energy=         0.257632
 Sum of electronic and zero-point Energies=          -1576.639483
 Sum of electronic and thermal Energies=             -1576.614531
 Sum of electronic and thermal Enthalpies=           -1576.613587
 Sum of electronic and thermal Free Energies=        -1576.700096

                     E (Thermal)             CV                S
                      KCal/Mol        Cal/Mol-Kelvin    Cal/Mol-Kelvin
 Total                  215.359             86.954            182.073
 Electronic               0.000              0.000              0.000
 Translational            0.889              2.981             43.462
 Rotational               0.889              2.981             36.204
 Vibrational            213.582             80.992            102.407
 Vibration     1          0.593              1.986              6.673
 Vibration     2          0.593              1.986              6.591
 Vibration     3          0.593              1.984              5.911
 Vibration     4          0.594              1.983              5.625
 Vibration     5          0.594              1.981              5.268
 Vibration     6          0.595              1.979              4.939
 Vibration     7          0.596              1.976              4.641
 Vibration     8          0.597              1.973              4.450
 Vibration     9          0.598              1.970              4.216
 Vibration    10          0.599              1.967              4.071
 Vibration    11          0.600              1.961              3.840
 Vibration    12          0.601              1.960              3.797
 Vibration    13          0.601              1.959              3.748
 Vibration    14          0.607              1.940              3.237
 Vibration    15          0.619              1.900              2.647
 Vibration    16          0.621              1.895              2.586
 Vibration    17          0.630              1.865              2.313
 Vibration    18          0.633              1.856              2.246
 Vibration    19          0.647              1.810              1.956
 Vibration    20          0.648              1.809              1.951
 Vibration    21          0.655              1.787              1.840
 Vibration    22          0.671              1.737              1.629
 Vibration    23          0.694              1.669              1.403
 Vibration    24          0.696              1.663              1.386
 Vibration    25          0.717              1.604              1.231
 Vibration    26          0.720              1.595              1.212
 Vibration    27          0.730              1.567              1.149
 Vibration    28          0.755              1.499              1.014
 Vibration    29          0.790              1.407              0.861
 Vibration    30          0.794              1.397              0.847
 Vibration    31          0.836              1.295              0.710
 Vibration    32          0.874              1.208              0.613
 Vibration    33          0.879              1.196              0.600
 Vibration    34          0.887              1.179              0.583
 Vibration    35          0.897              1.157              0.560
 Vibration    36          0.932              1.083              0.493
 Vibration    37          0.943              1.061              0.474

 1\1\GINC-R3806\Freq\RM062X\Gen\C14H18F3N2O3S1(1-)\ROOT\19-Feb-2019\0\\
 #N Geom=AllCheck Guess=TCheck SCRF=Check Test GenChk RM062X/ChkBas Fre
 q\\4SulfCF3_EtO.M062X_6-31pGd_opt_Pentadecane\\-1,1\C,-1.7597193291,2.
 2774136135,0.2886467156\C,-0.3944270902,1.6020180517,0.1980731078\C,0.
 7287891746,2.6235383441,0.0664906411\N,2.0080301345,1.9497367536,-0.00
 76369827\C,3.1462843562,2.6662995133,-0.1480534756\O,3.1598281824,3.89
 88661679,-0.2277264682\N,4.286470764,1.8752927545,-0.1916269013\C,5.59
 3753235,2.29153203,-0.3374517325\C,6.0016452386,3.6328650603,-0.482732

 Normal termination of Gaussian 09 at Tue Feb 19 12:28:16 2019.
