 Gaussian 09, Revision E.01,

 ----------------------------------------------------------------------
 # M062X/Gen 6D SCF=Tight INT(grid=ultrafine) OPT IOP(2/17=4) maxdisk=2
 684354560
 ----------------------------------------------------------------------

 ------------------------------
 4SulfCF3_EtO.M062X_6-31pGd_opt
 ------------------------------
 Symbolic Z-matrix:
 Charge = -1 Multiplicity = 1

 SCF Done:  E(RM062X) =  -1576.86121826     A.U. after   16 cycles
 SCF Done:  E(RM062X) =  -1576.89892816     A.U. after   14 cycles
 SCF Done:  E(RM062X) =  -1576.91286332     A.U. after   16 cycles
 SCF Done:  E(RM062X) =  -1576.91574007     A.U. after   14 cycles
 SCF Done:  E(RM062X) =  -1576.91539900     A.U. after   16 cycles
 SCF Done:  E(RM062X) =  -1576.91651344     A.U. after   12 cycles
 SCF Done:  E(RM062X) =  -1576.91662541     A.U. after   14 cycles
 SCF Done:  E(RM062X) =  -1576.91713623     A.U. after   13 cycles
 SCF Done:  E(RM062X) =  -1576.91721239     A.U. after   12 cycles
 SCF Done:  E(RM062X) =  -1576.91721897     A.U. after   11 cycles
 SCF Done:  E(RM062X) =  -1576.91723955     A.U. after   10 cycles
 SCF Done:  E(RM062X) =  -1576.91723968     A.U. after   10 cycles
 SCF Done:  E(RM062X) =  -1576.91723982     A.U. after   10 cycles
 SCF Done:  E(RM062X) =  -1576.91723991     A.U. after   10 cycles
 SCF Done:  E(RM062X) =  -1576.91723998     A.U. after   10 cycles
 SCF Done:  E(RM062X) =  -1576.91724001     A.U. after   10 cycles
 SCF Done:  E(RM062X) =  -1576.91724002     A.U. after    9 cycles
 SCF Done:  E(RM062X) =  -1576.91724003     A.U. after    8 cycles
 Optimization completed on the basis of negligible forces.
    -- Stationary point found.

 1\1\GINC-R4165\FOpt\RM062X\Gen\C14H18F3N2O3S1(1-)\ROOT\19-Feb-2019\0\\
 # M062X/Gen 6D SCF=Tight INT(grid=ultrafine) OPT IOP(2/17=4) maxdisk=2
 684354560\\4SulfCF3_EtO.M062X_6-31pGd_opt\\-1,1\C,-1.7494955493,2.2490
 147283,0.3005153084\C,-0.373476878,1.5888014855,0.257023243\C,0.733679
 5569,2.6120464098,0.0294686206\N,2.0158663745,1.9473470428,-0.00689762
 73\C,3.1504541412,2.6686703127,-0.1583363188\O,3.1604206746,3.89816424
 16,-0.2624496133\N,4.2923001816,1.8755974436,-0.181729772\C,5.59683003
 89,2.2891653994,-0.3274249596\C,6.004684885,3.631162568,-0.4772813955\

 Normal termination of Gaussian 09 at Tue Feb 19 11:44:45 2019.
 Gaussian 09:  ES64L-G09RevE.01 30-Nov-2015

 ----------------------------------------------------------------------
 # M062X/Gen 6D SCF=Tight INT(grid=ultrafine) OPT IOP(2/17=4) Freq=Nora
 man maxdisk=2684354560 geom=check guess=read IOP(2/17=4)
 ----------------------------------------------------------------------

 ------------------------------
 4SulfCF3_EtO.M062X_6-31pGd_opt
 ------------------------------
 Structure from the checkpoint file:  "4SulfCF3_EtO.M062X_6-31pGd_opt.chk"
 Charge = -1 Multiplicity = 1

 SCF Done:  E(RM062X) =  -1576.91724003     A.U. after    1 cycles
 Optimization completed.
    -- Stationary point found.

 1\1\GINC-R4165\FOpt\RM062X\Gen\C14H18F3N2O3S1(1-)\ROOT\19-Feb-2019\0\\
 # M062X/Gen 6D SCF=Tight INT(grid=ultrafine) OPT IOP(2/17=4) Freq=Nora
 man maxdisk=2684354560 geom=check guess=read IOP(2/17=4)\\4SulfCF3_EtO
 .M062X_6-31pGd_opt\\-1,1\C,-1.7494955493,2.2490147283,0.3005153084\C,-
 0.373476878,1.5888014855,0.257023243\C,0.7336795569,2.6120464098,0.029
 4686206\N,2.0158663745,1.9473470428,-0.0068976273\C,3.1504541412,2.668
 6703127,-0.1583363188\O,3.1604206746,3.8981642416,-0.2624496133\N,4.29
 23001816,1.8755974436,-0.181729772\C,5.5968300389,2.2891653994,-0.3274

 Normal termination of Gaussian 09 at Tue Feb 19 11:45:43 2019.

 ----------------------------------------------------------------------
 #N Geom=AllCheck Guess=TCheck SCRF=Check Test GenChk RM062X/ChkBas Fre
 q
 ----------------------------------------------------------------------

 Structure from the checkpoint file:  "4SulfCF3_EtO.M062X_6-31pGd_opt.chk"
 ------------------------------
 4SulfCF3_EtO.M062X_6-31pGd_opt
 ------------------------------
 Charge = -1 Multiplicity = 1

                         Standard orientation:
 ---------------------------------------------------------------------
 Center     Atomic      Atomic             Coordinates (Angstroms)
 Number     Number       Type             X           Y           Z
 ---------------------------------------------------------------------
      1          6           0        6.700965   -2.710842    0.477042
      2          6           0        5.605567   -1.652714    0.369030
      3          6           0        4.237423   -2.282544    0.132166
      4          7           0        3.232270   -1.249468    0.034324
      5          6           0        1.931747   -1.581543   -0.135663
      6          8           0        1.536148   -2.748198   -0.206462
      7          7           0        1.099969   -0.470474   -0.219301
      8          6           0       -0.264602   -0.456929   -0.397698
      9          6           0       -1.072061   -1.606567   -0.524584
     10          6           0       -0.879451    0.815550   -0.458928
     11          6           0       -2.245287    0.933073   -0.642906
     12          6           0       -3.044613   -0.211548   -0.764720
     13          6           0       -2.442406   -1.471241   -0.709005
     14          1           0        7.681368   -2.254484    0.648938
     15          1           0        6.765082   -3.306977   -0.441124
     16          1           0        6.502163   -3.400915    1.305789
     17          1           0        5.825751   -0.953165   -0.445858
     18          1           0        5.567078   -1.045678    1.281233
     19          1           0        3.987401   -2.971836    0.951462
     20          1           0        4.251883   -2.887904   -0.786652
     21          1           0        3.536609   -0.258632    0.072713
     22          1           0        1.548681    0.467083   -0.151342
     23          1           0       -0.610537   -2.583389   -0.479437
     24          1           0       -0.250884    1.697837   -0.361886
     25          1           0       -2.704163    1.917009   -0.689165
     26         16           0       -4.789852   -0.062380   -1.059588
     27          6           0       -5.390022   -0.050797    0.644036
     28          9           0       -4.919524    0.973187    1.371122
     29          9           0       -6.732915    0.058920    0.623482
     30          9           0       -5.094004   -1.168008    1.324465
     31          1           0       -3.058627   -2.361179   -0.807645
     32          8           0        4.210528    1.384096    0.153025
     33          8           0        2.100604    2.119137   -0.076532
     34          6           0        3.342036    2.288746    0.061570
     35          6           0        3.860012    3.735248    0.128051
     36          6           0        2.778338    4.799769   -0.007339
     37          1           0        4.619396    3.841064   -0.656576
     38          1           0        4.398457    3.839101    1.078382
     39          1           0        2.251507    4.695546   -0.960361
     40          1           0        3.204572    5.809127    0.048453
     41          1           0        2.030095    4.691929    0.783156
 ---------------------------------------------------------------------

 SCF Done:  E(RM062X) =  -1576.91724003     A.U. after    2 cycles

 The electronic state is 1-A.
 Alpha  occ. eigenvalues --  -89.86498 -25.22943 -25.22350 -25.22340 -19.48901
 Alpha  occ. eigenvalues --  -19.47076 -19.46568 -14.66542 -14.64728 -10.74385
 Alpha  occ. eigenvalues --  -10.55833 -10.51730 -10.50282 -10.48847 -10.47054
 Alpha  occ. eigenvalues --  -10.46872 -10.46849 -10.45370 -10.44968 -10.44689
 Alpha  occ. eigenvalues --  -10.44553 -10.42946 -10.42907  -8.20956  -6.13054
 Alpha  occ. eigenvalues --   -6.12772  -6.12350  -1.39169  -1.30008  -1.29577
 Alpha  occ. eigenvalues --   -1.05018  -1.03160  -0.93733  -0.93267  -0.90421
 Alpha  occ. eigenvalues --   -0.86806  -0.81236  -0.78264  -0.75154  -0.74981
 Alpha  occ. eigenvalues --   -0.73944  -0.69681  -0.66928  -0.61831  -0.61463
 Alpha  occ. eigenvalues --   -0.61341  -0.61068  -0.59938  -0.57921  -0.55493
 Alpha  occ. eigenvalues --   -0.54551  -0.50724  -0.50092  -0.49573  -0.49406
 Alpha  occ. eigenvalues --   -0.46356  -0.45741  -0.45329  -0.45039  -0.43914
 Alpha  occ. eigenvalues --   -0.43391  -0.42842  -0.41934  -0.41506  -0.40650
 Alpha  occ. eigenvalues --   -0.40592  -0.39946  -0.39697  -0.38558  -0.37695
 Alpha  occ. eigenvalues --   -0.37159  -0.36184  -0.35993  -0.34051  -0.33712
 Alpha  occ. eigenvalues --   -0.33542  -0.32682  -0.31735  -0.31153  -0.30770
 Alpha  occ. eigenvalues --   -0.30125  -0.29818  -0.28795  -0.26529  -0.23807
 Alpha  occ. eigenvalues --   -0.22378  -0.21474  -0.19998  -0.19395  -0.19323
 Alpha  occ. eigenvalues --   -0.18792  -0.15372
 Alpha virt. eigenvalues --    0.09479   0.09853   0.10200   0.10752   0.11182
 Alpha virt. eigenvalues --    0.11583   0.11648   0.11949   0.12448   0.13175
 Alpha virt. eigenvalues --    0.13203   0.13467   0.13818   0.14429   0.14752

 Mulliken charges:
               1
     1  C   -0.794127
     2  C   -0.338058
     3  C   -0.211559
     4  N   -0.791991
     5  C    0.846977
     6  O   -0.609378
     7  N   -0.640728
     8  C   -0.000401
     9  C    0.234181
    10  C   -0.787445
    11  C    0.151688
    12  C   -0.232572
    13  C   -0.647257
    14  H    0.197878
    15  H    0.199149
    16  H    0.198867
    17  H    0.243027
    18  H    0.237682
    19  H    0.211425
    20  H    0.208090
    21  H    0.526356
    22  H    0.516637
    23  H    0.270024
    24  H    0.274867
    25  H    0.208516
    26  S    0.456307
    27  C    0.549275
    28  F   -0.276797
    29  F   -0.306376
    30  F   -0.277313
    31  H    0.204839
    32  O   -0.631730
    33  O   -0.678013
    34  C    0.686045
    35  C   -0.501959
    36  C   -0.719765
    37  H    0.208894
    38  H    0.209129
    39  H    0.215795
    40  H    0.172410
    41  H    0.217410
 Sum of Mulliken charges =  -1.00000

 Dipole moment (field-independent basis, Debye):
    X=             -3.6367    Y=             -0.2440    Z=             -0.2031  Tot=              3.6505
 Quadrupole moment (field-independent basis, Debye-Ang):
   XX=           -214.1631   YY=           -170.6880   ZZ=           -150.3343
   XY=             -6.4979   XZ=              2.0273   YZ=             -0.8143

  Exact polarizability: 328.091 -12.635 221.359  12.786   0.207 147.981
 Approx polarizability: 322.123  -7.479 262.166  12.469   0.775 192.224

                      1                      2                      3
                      A                      A                      A
 Frequencies --      9.8164                18.9047                20.1142
 Red. masses --      3.1216                 5.2113                 5.2627
 Frc consts  --      0.0002                 0.0011                 0.0013
 IR Inten    --      0.1254                 0.5861                 0.1788

                      4                      5                      6
                      A                      A                      A
 Frequencies --     27.9108                35.5867                41.9654
 Red. masses --      2.6485                13.2957                 5.5223
 Frc consts  --      0.0012                 0.0099                 0.0057
 IR Inten    --      0.0450                 0.1206                 1.3297

                      7                      8                      9
                      A                      A                      A
 Frequencies --     46.6528                51.0514                55.3753
 Red. masses --      2.7006                 3.6698                 5.9239
 Frc consts  --      0.0035                 0.0056                 0.0107
 IR Inten    --      0.5926                 0.4597                 2.1405

                     10                     11                     12
                      A                      A                      A
 Frequencies --     66.1799                76.6554                79.2031
 Red. masses --      4.3050                 4.5418                 6.5595
 Frc consts  --      0.0111                 0.0157                 0.0242
 IR Inten    --      2.8014                 0.4520                 0.1269

                     13                     14                     15
                      A                      A                      A
 Frequencies --     82.9945               110.6817               147.9966
 Red. masses --      5.3531                 6.2100                 3.9885
 Frc consts  --      0.0217                 0.0448                 0.0515
 IR Inten    --      6.2107                 5.4729                 1.3557

                     16                     17                     18
                      A                      A                      A
 Frequencies --    159.5715               183.6820               187.9564
 Red. masses --      7.1454                 4.6472                 5.1834
 Frc consts  --      0.1072                 0.0924                 0.1079
 IR Inten    --     25.7630                 4.4274                16.8746

                     19                     20                     21
                      A                      A                      A
 Frequencies --    218.4661               220.4480               241.8870
 Red. masses --      1.1277                 6.7477                 1.1176
 Frc consts  --      0.0317                 0.1932                 0.0385
 IR Inten    --      0.5409                 0.6779                 0.0119

                     22                     23                     24
                      A                      A                      A
 Frequencies --    263.4402               301.0784               303.4602
 Red. masses --      5.5605                 7.7570                 4.2855
 Frc consts  --      0.2274                 0.4143                 0.2325
 IR Inten    --      2.6882                 0.2915                14.7967

                     25                     26                     27
                      A                      A                      A
 Frequencies --    333.6919               338.6317               352.4835
 Red. masses --      8.0107                 6.9017                 6.4291
 Frc consts  --      0.5255                 0.4663                 0.4706
 IR Inten    --      1.1930                 1.7581                23.1751

                     28                     29                     30
                      A                      A                      A
 Frequencies --    384.9400               428.4218               433.6968
 Red. masses --      5.8672                 3.1531                 6.8229
 Frc consts  --      0.5122                 0.3410                 0.7561
 IR Inten    --      4.4782                 0.0948                 2.4212

                     31                     32                     33
                      A                      A                      A
 Frequencies --    479.0992               519.4160               525.0125
 Red. masses --     15.0461                 5.6980                 4.9765
 Frc consts  --      2.0348                 0.9057                 0.8082
 IR Inten    --      4.5362                14.4131                 8.8131

                     34                     35                     36
                      A                      A                      A
 Frequencies --    529.8163               541.7383               575.4043
 Red. masses --      3.6004                17.9526                 8.5011
 Frc consts  --      0.5955                 3.1042                 1.6583
 IR Inten    --     15.0038                 1.3277                11.7340

                     37                     38                     39
                      A                      A                      A
 Frequencies --    583.2461               639.4790               657.7817
 Red. masses --      1.9735                 7.1114                 4.6360
 Frc consts  --      0.3955                 1.7134                 1.1818
 IR Inten    --      0.6679                 0.6549                42.9129

                     40                     41                     42
                      A                      A                      A
 Frequencies --    699.0524               726.0678               747.1359
 Red. masses --      6.6412                 4.0766                 1.1411
 Frc consts  --      1.9121                 1.2662                 0.3753
 IR Inten    --      3.6496                 1.2021                 5.4190

                     43                     44                     45
                      A                      A                      A
 Frequencies --    768.8074               771.0769               780.5480
 Red. masses --      3.0461                16.8936                 6.8120
 Frc consts  --      1.0608                 5.9179                 2.4453
 IR Inten    --     32.6446                 6.1321                 2.8304

                     46                     47                     48
                      A                      A                      A
 Frequencies --    812.7377               823.0940               858.3497
 Red. masses --      1.3420                 1.4097                 1.2428
 Frc consts  --      0.5223                 0.5627                 0.5395
 IR Inten    --      1.5710                 9.8615                 6.5749

                     49                     50                     51
                      A                      A                      A
 Frequencies --    869.9171               871.0497               889.9269
 Red. masses --      1.6541                 4.6456                 4.0226
 Frc consts  --      0.7375                 2.0767                 1.8770
 IR Inten    --     33.0347                45.5881                26.6654

                     52                     53                     54
                      A                      A                      A
 Frequencies --    900.9985               928.4112               963.7861
 Red. masses --      1.1568                 1.7301                 1.0938
 Frc consts  --      0.5533                 0.8786                 0.5986
 IR Inten    --      4.4744                 3.2019                73.4516

                     55                     56                     57
                      A                      A                      A
 Frequencies --    992.5535              1009.9084              1021.0113
 Red. masses --      1.2792                 1.3002                 3.5428
 Frc consts  --      0.7425                 0.7813                 2.1760
 IR Inten    --     14.3998                 6.5565                 5.1186

                     58                     59                     60
                      A                      A                      A
 Frequencies --   1022.0916              1050.5298              1082.6118
 Red. masses --      1.7554                 4.0444                 2.7135
 Frc consts  --      1.0804                 2.6298                 1.8738
 IR Inten    --      5.6192                21.2972                 4.0426

                     61                     62                     63
                      A                      A                      A
 Frequencies --   1107.4537              1112.7966              1125.3319
 Red. masses --      1.7756                 2.3821                 2.7469
 Frc consts  --      1.2831                 1.7380                 2.0495
 IR Inten    --      0.6874                 5.7954                23.3983

                     64                     65                     66
                      A                      A                      A
 Frequencies --   1148.1145              1160.6720              1168.3338
 Red. masses --      1.5028                 1.9978                 8.2906
 Frc consts  --      1.1671                 1.5857                 6.6676
 IR Inten    --      8.2218                22.0866               613.6108

                     67                     68                     69
                      A                      A                      A
 Frequencies --   1182.4622              1197.5569              1209.0006
 Red. masses --      1.6097                 4.1662                11.1269
 Frc consts  --      1.3261                 3.5204                 9.5825
 IR Inten    --      0.3653                 1.7956               195.9608

                     70                     71                     72
                      A                      A                      A
 Frequencies --   1211.9618              1214.5114              1273.6487
 Red. masses --      3.1626                 1.7182                 1.1886
 Frc consts  --      2.7370                 1.4932                 1.1360
 IR Inten    --     94.1881               148.3908                 0.6916

                     73                     74                     75
                      A                      A                      A
 Frequencies --   1286.3244              1304.6363              1323.9236
 Red. masses --      1.1868                 2.0869                 2.2305
 Frc consts  --      1.1570                 2.0928                 2.3034
 IR Inten    --      0.2199               348.6946                23.7229

                     76                     77                     78
                      A                      A                      A
 Frequencies --   1328.9503              1330.0780              1334.8356
 Red. masses --      1.2463                 1.1499                 1.6461
 Frc consts  --      1.2968                 1.1986                 1.7281
 IR Inten    --      0.1043                 6.2506                31.7884

                     79                     80                     81
                      A                      A                      A
 Frequencies --   1371.6190              1386.9426              1421.5087
 Red. masses --      2.1889                 3.3587                 1.3211
 Frc consts  --      2.4263                 3.8066                 1.5728
 IR Inten    --    280.2780               337.7750                19.4205

                     82                     83                     84
                      A                      A                      A
 Frequencies --   1424.8349              1436.3185              1464.3482
 Red. masses --      1.3332                 1.6333                 3.3203
 Frc consts  --      1.5947                 1.9852                 4.1948
 IR Inten    --     15.0287                 4.9694                 6.2077

                     85                     86                     87
                      A                      A                      A
 Frequencies --   1471.7217              1490.9493              1508.5378
 Red. masses --      3.8987                 1.2075                 1.0749
 Frc consts  --      4.9753                 1.5815                 1.4412
 IR Inten    --    373.3897                20.0594                10.3397

                     88                     89                     90
                      A                      A                      A
 Frequencies --   1511.3357              1523.6312              1524.6634
 Red. masses --      1.0396                 1.0989                 1.0402
 Frc consts  --      1.3991                 1.5030                 1.4247
 IR Inten    --      5.0335                55.4982                 6.8354

                     91                     92                     93
                      A                      A                      A
 Frequencies --   1528.4317              1542.4793              1555.8719
 Red. masses --      1.0665                 1.0857                 2.6590
 Frc consts  --      1.4679                 1.5219                 3.7924
 IR Inten    --      1.8416                16.2986               219.2615

                     94                     95                     96
                      A                      A                      A
 Frequencies --   1604.7416              1633.9867              1668.7865
 Red. masses --      3.8913                 2.2585                 5.9267
 Frc consts  --      5.9041                 3.5528                 9.7244
 IR Inten    --    189.6265                85.2122               532.1752

                     97                     98                     99
                      A                      A                      A
 Frequencies --   1687.5990              1717.8765              1790.4245
 Red. masses --      2.3251                 3.5834                 3.0836
 Frc consts  --      3.9015                 6.2305                 5.8240
 IR Inten    --    253.6044               917.7412               386.8838

                    100                    101                    102
                      A                      A                      A
 Frequencies --   3033.7188              3059.7536              3063.9435
 Red. masses --      1.0604                 1.1023                 1.0364
 Frc consts  --      5.7501                 6.0805                 5.7326
 IR Inten    --     85.9926                32.8106                64.4749

                    103                    104                    105
                      A                      A                      A
 Frequencies --   3065.9979              3072.0286              3078.5352
 Red. masses --      1.0448                 1.0794                 1.0743
 Frc consts  --      5.7864                 6.0021                 5.9986
 IR Inten    --     75.9525               599.2912               181.1019

                    106                    107                    108
                      A                      A                      A
 Frequencies --   3086.0132              3107.9962              3114.8988
 Red. masses --      1.0612                 1.1013                 1.1024
 Frc consts  --      5.9545                 6.2680                 6.3019
 IR Inten    --     16.7957                15.7349                 0.6019

                    109                    110                    111
                      A                      A                      A
 Frequencies --   3138.1214              3138.6539              3139.4837
 Red. masses --      1.0953                 1.1038                 1.1009
 Frc consts  --      6.3550                 6.4065                 6.3931
 IR Inten    --     43.7674                65.5893                35.3723

                    112                    113                    114
                      A                      A                      A
 Frequencies --   3161.3502              3183.4397              3215.9111
 Red. masses --      1.1022                 1.0916                 1.0892
 Frc consts  --      6.4904                 6.5179                 6.6369
 IR Inten    --     37.1660              1881.9810                50.2540

                    115                    116                    117
                      A                      A                      A
 Frequencies --   3219.6698              3228.8100              3295.2113
 Red. masses --      1.0912                 1.0959                 1.0920
 Frc consts  --      6.6644                 6.7316                 6.9859
 IR Inten    --      3.2032                11.5653                 7.6496

 - Thermochemistry -
 -------------------
 Temperature   298.150 Kelvin.  Pressure   1.00000 Atm.
 Atom     1 has atomic number  6 and mass  12.00000

 Molecular mass:   351.09902 amu.
 Principal axes and moments of inertia in atomic units:
                           1         2         3
     Eigenvalues --  5090.17969********************
           X            0.99996  -0.00467   0.00706
           Y            0.00469   0.99998  -0.00335
           Z           -0.00705   0.00339   0.99997
 This molecule is an asymmetric top.
 Rotational symmetry number  1.
 Warning -- assumption of classical behavior for rotation
           may cause significant error
 Rotational temperatures (Kelvin)      0.01702     0.00419     0.00352
 Rotational constants (GHZ):           0.35455     0.08734     0.07333
 Zero-point vibrational energy     834720.3 (Joules/Mol)
                                  199.50295 (Kcal/Mol)
 Warning -- explicit consideration of  37 degrees of freedom as
           vibrations may cause significant error
 Vibrational temperatures:     14.12    27.20    28.94    40.16    51.20
          (Kelvin)             60.38    67.12    73.45    79.67    95.22
                              110.29   113.96   119.41   159.25   212.93
                              229.59   264.28   270.43   314.32   317.18
                              348.02   379.03   433.18   436.61   480.11
                              487.21   507.14   553.84   616.40   623.99
                              689.32   747.32   755.37   762.29   779.44
                              827.88   839.16   920.07   946.40  1005.78
                             1044.65  1074.96  1106.14  1109.41  1123.03
                             1169.35  1184.25  1234.97  1251.62  1253.24
                             1280.40  1296.33  1335.77  1386.67  1428.06
                             1453.03  1469.01  1470.56  1511.48  1557.63
                             1593.38  1601.06  1619.10  1651.88  1669.95
                             1680.97  1701.30  1723.02  1739.48  1743.74
                             1747.41  1832.49  1850.73  1877.08  1904.83
                             1912.06  1913.68  1920.53  1973.45  1995.50
                             2045.23  2050.02  2066.54  2106.87  2117.48
                             2145.14  2170.45  2174.47  2192.16  2193.65
                             2199.07  2219.28  2238.55  2308.86  2350.94
                             2401.01  2428.08  2471.64  2576.02  4364.84
                             4402.30  4408.33  4411.28  4419.96  4429.32
                             4440.08  4471.71  4481.64  4515.05  4515.82
                             4517.01  4548.47  4580.25  4626.97  4632.38
                             4645.53  4741.07

 Zero-point correction=                           0.317928 (Hartree/Particle)
 Thermal correction to Energy=                    0.343072
 Thermal correction to Enthalpy=                  0.344017
 Thermal correction to Gibbs Free Energy=         0.255296
 Sum of electronic and zero-point Energies=          -1576.599312
 Sum of electronic and thermal Energies=             -1576.574168
 Sum of electronic and thermal Enthalpies=           -1576.573224
 Sum of electronic and thermal Free Energies=        -1576.661944

                     E (Thermal)             CV                S
                      KCal/Mol        Cal/Mol-Kelvin    Cal/Mol-Kelvin
 Total                  215.281             87.021            186.727
 Electronic               0.000              0.000              0.000
 Translational            0.889              2.981             43.462
 Rotational               0.889              2.981             36.202
 Vibrational            213.504             81.060            107.063
 Vibration     1          0.593              1.987              8.048
 Vibration     2          0.593              1.986              6.746
 Vibration     3          0.593              1.986              6.623
 Vibration     4          0.593              1.984              5.973
 Vibration     5          0.594              1.982              5.491
 Vibration     6          0.595              1.980              5.164
 Vibration     7          0.595              1.979              4.954
 Vibration     8          0.595              1.977              4.776
 Vibration     9          0.596              1.975              4.616
 Vibration    10          0.598              1.970              4.264
 Vibration    11          0.599              1.965              3.975
 Vibration    12          0.600              1.963              3.911
 Vibration    13          0.600              1.961              3.819
 Vibration    14          0.607              1.941              3.257
 Vibration    15          0.617              1.905              2.698
 Vibration    16          0.621              1.892              2.555
 Vibration    17          0.631              1.862              2.291
 Vibration    18          0.633              1.856              2.248
 Vibration    19          0.646              1.813              1.972
 Vibration    20          0.647              1.810              1.955
 Vibration    21          0.658              1.776              1.789
 Vibration    22          0.670              1.740              1.639
 Vibration    23          0.693              1.672              1.411
 Vibration    24          0.695              1.667              1.398
 Vibration    25          0.715              1.608              1.242
 Vibration    26          0.719              1.598              1.219
 Vibration    27          0.729              1.570              1.155
 Vibration    28          0.754              1.502              1.020
 Vibration    29          0.790              1.408              0.864
 Vibration    30          0.794              1.397              0.847
 Vibration    31          0.836              1.296              0.712
 Vibration    32          0.874              1.207              0.611
 Vibration    33          0.880              1.195              0.598
 Vibration    34          0.885              1.184              0.588
 Vibration    35          0.897              1.158              0.562
 Vibration    36          0.932              1.084              0.494
 Vibration    37          0.940              1.068              0.479

 Optimization completed on the basis of negligible forces.
    -- Stationary point found.

 1\1\GINC-R4165\Freq\RM062X\Gen\C14H18F3N2O3S1(1-)\ROOT\19-Feb-2019\0\\
 #N Geom=AllCheck Guess=TCheck SCRF=Check Test GenChk RM062X/ChkBas Fre
 q\\4SulfCF3_EtO.M062X_6-31pGd_opt\\-1,1\C,-1.7494955493,2.2490147283,0
 .3005153084\C,-0.373476878,1.5888014855,0.257023243\C,0.7336795569,2.6
 120464098,0.0294686206\N,2.0158663745,1.9473470428,-0.0068976273\C,3.1
 504541412,2.6686703127,-0.1583363188\O,3.1604206746,3.8981642416,-0.26
 24496133\N,4.2923001816,1.8755974436,-0.181729772\C,5.5968300389,2.289
 1653994,-0.3274249596\C,6.004684885,3.631162568,-0.4772813955\C,6.5830

 Normal termination of Gaussian 09 at Tue Feb 19 12:39:49 2019.
