 Gaussian 09, Revision E.01,

 ----------------------------------------------------------------------
 # M062X/Gen 6D SCF=Tight INT(grid=ultrafine) OPT IOP(2/17=4) SCRF=(SMD
 ,Solvent=h2o) maxdisk=2147483648
 ----------------------------------------------------------------------

 ------------------------------------
 2Nitro4Fluro.M062X_6-31pGd_opt_water
 ------------------------------------
 Symbolic Z-matrix:
 Charge =  0 Multiplicity = 1

 SCF Done:  E(RM062X) =  -877.676798279     A.U. after   15 cycles
 SCF Done:  E(RM062X) =  -877.677586651     A.U. after   14 cycles
 SCF Done:  E(RM062X) =  -877.677135807     A.U. after   14 cycles
 SCF Done:  E(RM062X) =  -877.677707189     A.U. after   10 cycles
 SCF Done:  E(RM062X) =  -877.676074313     A.U. after   14 cycles
 SCF Done:  E(RM062X) =  -877.677786222     A.U. after   11 cycles
 SCF Done:  E(RM062X) =  -877.677802250     A.U. after   12 cycles
 SCF Done:  E(RM062X) =  -877.677878794     A.U. after   13 cycles
 SCF Done:  E(RM062X) =  -877.677929007     A.U. after   12 cycles
 SCF Done:  E(RM062X) =  -877.678005703     A.U. after   13 cycles
 SCF Done:  E(RM062X) =  -877.678411255     A.U. after   14 cycles
 SCF Done:  E(RM062X) =  -877.678425263     A.U. after   14 cycles
 SCF Done:  E(RM062X) =  -877.678429398     A.U. after   12 cycles
 SCF Done:  E(RM062X) =  -877.678430043     A.U. after   12 cycles
 SCF Done:  E(RM062X) =  -877.678430163     A.U. after   12 cycles
 SCF Done:  E(RM062X) =  -877.678430283     A.U. after   11 cycles
 SCF Done:  E(RM062X) =  -877.678430243     A.U. after   11 cycles
 SCF Done:  E(RM062X) =  -877.678430279     A.U. after   11 cycles
 Optimization completed.
    -- Stationary point found.
 Normal termination of Gaussian 09 at Mon Feb  4 19:53:46 2019.
 Gaussian 09:  ES64L-G09RevE.01 30-Nov-2015

 ----------------------------------------------------------------------
 # M062X/Gen 6D SCF=Tight INT(grid=ultrafine) OPT IOP(2/17=4) SCRF=(SMD
 ,Solvent=h2o) Freq=Noraman maxdisk=2147483648 geom=check guess=read IO
 P(2/17=4)
 ----------------------------------------------------------------------

 ------------------------------------
 2Nitro4Fluro.M062X_6-31pGd_opt_water
 ------------------------------------
 Structure from the checkpoint file:  "2Nitro4Fluro.M062X_6-31pGd_opt_water.chk"
 Charge =  0 Multiplicity = 1

 SCF Done:  E(RM062X) =  -877.678430279     A.U. after    2 cycles
 Optimization completed.
    -- Stationary point found.
 Normal termination of Gaussian 09 at Mon Feb  4 19:54:58 2019.

 ----------------------------------------------------------------------
 #N Geom=AllCheck Guess=TCheck SCRF=Check Test GenChk RM062X/ChkBas Fre
 q
 ----------------------------------------------------------------------

 Structure from the checkpoint file:  "2Nitro4Fluro.M062X_6-31pGd_opt_water.chk"
 ------------------------------------
 2Nitro4Fluro.M062X_6-31pGd_opt_water
 ------------------------------------
 Charge =  0 Multiplicity = 1

                         Standard orientation:
 ---------------------------------------------------------------------
 Center     Atomic      Atomic             Coordinates (Angstroms)
 Number     Number       Type             X           Y           Z
 ---------------------------------------------------------------------
      1          6           0       -6.300425   -0.151842   -0.081153
      2          6           0       -4.952528    0.486197    0.238542
      3          6           0       -3.806688   -0.436931   -0.145824
      4          7           0       -2.526050    0.185244    0.170773
      5          6           0       -1.365946   -0.438561   -0.100413
      6          8           0       -1.313096   -1.567210   -0.602667
      7          7           0       -0.234624    0.313070    0.217254
      8          6           0        1.078593   -0.101954    0.127109
      9          6           0        2.162606    0.809316    0.012634
     10          6           0        1.408292   -1.468063    0.168696
     11          6           0        2.728417   -1.853185    0.090619
     12          6           0        3.797880   -0.970423   -0.025057
     13          6           0        3.491792    0.373048   -0.060760
     14          1           0       -7.123967    0.512702    0.195991
     15          1           0       -6.427425   -1.092928    0.465144
     16          1           0       -4.889329    0.713392    1.309765
     17          1           0       -4.848203    1.435247   -0.301260
     18          1           0       -3.843632   -0.660762   -1.218275
     19          1           0       -3.889724   -1.387907    0.393043
     20          1           0       -2.522900    1.104278    0.601083
     21          1           0        0.638821   -2.218741    0.280188
     22          9           0        2.996463   -3.169698    0.148051
     23          7           0        1.967430    2.240521   -0.043811
     24          1           0        4.818107   -1.332394   -0.072611
     25          8           0        2.903607    2.947987   -0.391943
     26          8           0        0.872652    2.713585    0.262139
     27          1           0       -6.386951   -0.368574   -1.151530
     28          1           0       -0.378172    1.299420    0.408094
     29          1           0        4.280651    1.111197   -0.138197
 ---------------------------------------------------------------------

 SCF Done:  E(RM062X) =  -877.678430279     A.U. after    1 cycles

 The electronic state is 1-A.
 Alpha  occ. eigenvalues --  -25.29652 -19.70328 -19.70066 -19.63068 -15.03575
 Alpha  occ. eigenvalues --  -14.81334 -14.79367 -10.70192 -10.66543 -10.64992
 Alpha  occ. eigenvalues --  -10.62717 -10.58937 -10.57897 -10.57309 -10.57202
 Alpha  occ. eigenvalues --  -10.54265 -10.52994  -1.39158  -1.38675  -1.19806
 Alpha  occ. eigenvalues --   -1.19145  -1.07841  -1.04204  -0.99445  -0.92703
 Alpha  occ. eigenvalues --   -0.88974  -0.86809  -0.81238  -0.78280  -0.74281
 Alpha  occ. eigenvalues --   -0.72071  -0.69005  -0.68632  -0.65953  -0.65815
 Alpha  occ. eigenvalues --   -0.64214  -0.63928  -0.62848  -0.58840  -0.58377
 Alpha  occ. eigenvalues --   -0.58121  -0.56192  -0.54073  -0.53401  -0.52410
 Alpha  occ. eigenvalues --   -0.51704  -0.50699  -0.49908  -0.47434  -0.46799
 Alpha  occ. eigenvalues --   -0.45218  -0.44707  -0.42162  -0.41561  -0.40767
 Alpha  occ. eigenvalues --   -0.40090  -0.40027  -0.39447  -0.38803  -0.36686
 Alpha  occ. eigenvalues --   -0.33361  -0.33026  -0.29238
 Alpha virt. eigenvalues --   -0.06933  -0.00076   0.01660   0.03035   0.03097
 Alpha virt. eigenvalues --    0.03457   0.04026   0.04052   0.04346   0.05107
 Alpha virt. eigenvalues --    0.06037   0.06546   0.06671   0.07650   0.08021

 Mulliken charges:
               1
     1  C   -0.749815
     2  C   -0.379589
     3  C   -0.198540
     4  N   -0.671752
     5  C    0.769825
     6  O   -0.724120
     7  N   -0.706374
     8  C    1.139266
     9  C   -0.989973
    10  C   -0.057403
    11  C    0.005830
    12  C   -0.178981
    13  C    0.009580
    14  H    0.224235
    15  H    0.222695
    16  H    0.236129
    17  H    0.235677
    18  H    0.242153
    19  H    0.240681
    20  H    0.490792
    21  H    0.296499
    22  F   -0.337233
    23  N   -0.188758
    24  H    0.287264
    25  O   -0.090247
    26  O   -0.175383
    27  H    0.222860
    28  H    0.527719
    29  H    0.296963
 Sum of Mulliken charges =  -0.00000

 Dipole moment (field-independent basis, Debye):
    X=             -2.6705    Y=              1.1487    Z=              2.5174  Tot=              3.8455
 Quadrupole moment (field-independent basis, Debye-Ang):
   XX=            -74.2620   YY=           -123.1774   ZZ=           -101.0915
   XY=            -13.5691   XZ=             -2.4873   YZ=             -0.6736

  Exact polarizability: 283.622  -1.257 256.874 -11.836   1.787 134.272
 Approx polarizability: 227.775  -4.545 216.522 -12.172   2.040 120.395

                      1                      2                      3
                      A                      A                      A
 Frequencies --     30.5246                39.6375                56.2334
 Red. masses --      5.5264                 4.4310                 2.6247
 Frc consts  --      0.0030                 0.0041                 0.0049
 IR Inten    --      1.8163                 6.3582                 0.2056

                      4                      5                      6
                      A                      A                      A
 Frequencies --     60.5470                73.6324                88.2349
 Red. masses --      4.6194                 3.4447                 4.9291
 Frc consts  --      0.0100                 0.0110                 0.0226
 IR Inten    --      2.1286                23.0343                 4.3773

                      7                      8                      9
                      A                      A                      A
 Frequencies --    101.2181               157.0235               160.2588
 Red. masses --      8.5354                 4.9019                 3.0883
 Frc consts  --      0.0515                 0.0712                 0.0467
 IR Inten    --     13.8989                 8.4189                18.8842

                     10                     11                     12
                      A                      A                      A
 Frequencies --    206.9318               238.1240               243.6817
 Red. masses --      6.4039                 1.1937                 4.5352
 Frc consts  --      0.1616                 0.0399                 0.1587
 IR Inten    --      5.8863                 0.5228                 0.8565

                     13                     14                     15
                      A                      A                      A
 Frequencies --    297.3028               308.2403               316.6233
 Red. masses --      7.0203                 5.7892                 6.6752
 Frc consts  --      0.3656                 0.3241                 0.3943
 IR Inten    --      6.9511                 2.8811                 1.7154

                     16                     17                     18
                      A                      A                      A
 Frequencies --    351.7970               368.5931               392.5584
 Red. masses --      6.2686                12.1978                 1.1274
 Frc consts  --      0.4571                 0.9764                 0.1024
 IR Inten    --     34.3501                 3.1434               109.4790

                     19                     20                     21
                      A                      A                      A
 Frequencies --    432.9716               455.3258               471.8923
 Red. masses --      6.6462                 3.1030                 4.4542
 Frc consts  --      0.7341                 0.3790                 0.5844
 IR Inten    --     20.7804                12.5108                 6.2322

                     22                     23                     24
                      A                      A                      A
 Frequencies --    577.3406               583.8456               614.0700
 Red. masses --      1.4995                 2.6756                 6.3397
 Frc consts  --      0.2945                 0.5374                 1.4085
 IR Inten    --    174.2931                92.6835                22.9602

                     25                     26                     27
                      A                      A                      A
 Frequencies --    637.1833               646.8459               686.0235
 Red. masses --      5.0660                 7.0931                 3.9202
 Frc consts  --      1.2118                 1.7486                 1.0870
 IR Inten    --     11.7070                26.9970                 3.1435

                     28                     29                     30
                      A                      A                      A
 Frequencies --    758.2742               767.4173               768.7827
 Red. masses --      2.0969                 3.1887                 2.2197
 Frc consts  --      0.7104                 1.1064                 0.7730
 IR Inten    --     38.5042                26.7338                 3.3048

                     31                     32                     33
                      A                      A                      A
 Frequencies --    772.9894               802.6223               837.4959
 Red. masses --      5.3452                 6.3406                 1.8041
 Frc consts  --      1.8817                 2.4066                 0.7456
 IR Inten    --     54.0569                 6.7492                28.7250

                     34                     35                     36
                      A                      A                      A
 Frequencies --    884.4947               886.3215               907.7135
 Red. masses --      3.5883                 2.0209                 1.1504
 Frc consts  --      1.6540                 0.9354                 0.5585
 IR Inten    --     68.6121                79.3088                 2.5403

                     37                     38                     39
                      A                      A                      A
 Frequencies --    931.2373               989.5739              1023.8470
 Red. masses --      1.6509                 1.3294                 3.2400
 Frc consts  --      0.8435                 0.7670                 2.0011
 IR Inten    --      4.2241                 7.6375                70.2062

                     40                     41                     42
                      A                      A                      A
 Frequencies --   1046.2617              1078.5504              1112.2777
 Red. masses --      4.4214                 2.6980                 2.4646
 Frc consts  --      2.8516                 1.8492                 1.7965
 IR Inten    --     45.5912                24.5193               105.5366

                     43                     44                     45
                      A                      A                      A
 Frequencies --   1148.7400              1169.9108              1172.9665
 Red. masses --      2.3474                 2.1503                 2.2097
 Frc consts  --      1.8251                 1.7341                 1.7912
 IR Inten    --     93.3444               119.0525                23.0103

                     46                     47                     48
                      A                      A                      A
 Frequencies --   1182.5824              1225.5776              1247.0987
 Red. masses --      1.6031                 2.4429                 1.7100
 Frc consts  --      1.3209                 2.1619                 1.5669
 IR Inten    --      0.2405               236.8349               428.4979

                     49                     50                     51
                      A                      A                      A
 Frequencies --   1282.0117              1283.2318              1313.6679
 Red. masses --      1.2094                 1.6283                 3.3110
 Frc consts  --      1.1711                 1.5798                 3.3665
 IR Inten    --     19.3330               342.1375               644.7580

                     52                     53                     54
                      A                      A                      A
 Frequencies --   1330.5620              1347.3813              1363.7015
 Red. masses --      1.0724                 1.5160                 3.2723
 Frc consts  --      1.1186                 1.6215                 3.5854
 IR Inten    --      0.6164                 7.3502               256.8393

                     55                     56                     57
                      A                      A                      A
 Frequencies --   1415.0223              1422.8923              1431.6113
 Red. masses --      3.5113                 1.4664                 1.8212
 Frc consts  --      4.1424                 1.7493                 2.1992
 IR Inten    --    427.9494               139.7044                97.3380

                     58                     59                     60
                      A                      A                      A
 Frequencies --   1492.0853              1492.5787              1500.4630
 Red. masses --      2.8445                 1.0561                 4.8889
 Frc consts  --      3.7312                 1.3863                 6.4850
 IR Inten    --    318.4188                14.7230               173.5758

                     61                     62                     63
                      A                      A                      A
 Frequencies --   1502.9311              1513.2959              1531.5654
 Red. masses --      1.0395                 1.0882                 1.0976
 Frc consts  --      1.3834                 1.4683                 1.5170
 IR Inten    --     12.2326                25.9776                86.0276

                     64                     65                     66
                      A                      A                      A
 Frequencies --   1551.1084              1573.5535              1611.2944
 Red. masses --      3.1840                 2.3691                 4.9250
 Frc consts  --      4.5134                 3.4561                 7.5336
 IR Inten    --   1740.5812               778.7549               157.7676

                     67                     68                     69
                      A                      A                      A
 Frequencies --   1654.3362              1694.7379              1716.7513
 Red. masses --      6.6821                 6.5496                 6.5013
 Frc consts  --     10.7749                11.0833                11.2893
 IR Inten    --    487.8085                98.1149              1050.5158

                     70                     71                     72
                      A                      A                      A
 Frequencies --   3075.7360              3078.1228              3084.3061
 Red. masses --      1.0601                 1.0366                 1.0575
 Frc consts  --      5.9089                 5.7868                 5.9274
 IR Inten    --      9.5138                29.2871                94.1989

                     73                     74                     75
                      A                      A                      A
 Frequencies --   3108.9786              3128.9436              3148.5100
 Red. masses --      1.1039                 1.1075                 1.1041
 Frc consts  --      6.2867                 6.3886                 6.4486
 IR Inten    --      0.0293                46.5818                95.6671

                     76                     77                     78
                      A                      A                      A
 Frequencies --   3157.8769              3271.5654              3281.6443
 Red. masses --      1.1023                 1.0914                 1.0969
 Frc consts  --      6.4766                 6.8822                 6.9597
 IR Inten    --     46.4578                 1.9783                17.8334

                     79                     80                     81
                      A                      A                      A
 Frequencies --   3301.5169              3595.1356              3617.0653
 Red. masses --      1.0928                 1.0779                 1.0798
 Frc consts  --      7.0182                 8.2085                 8.3235
 IR Inten    --     26.4910               190.2030               264.5895

 - Thermochemistry -
 -------------------
 Temperature   298.150 Kelvin.  Pressure   1.00000 Atm.
 Atom     1 has atomic number  6 and mass  12.00000

 Molecular mass:   241.08627 amu.
 Principal axes and moments of inertia in atomic units:
                           1         2         3
     Eigenvalues --  2466.512887976.16839**********
           X            0.99999   0.00396  -0.00080
           Y           -0.00396   0.99999   0.00268
           Z            0.00081  -0.00268   1.00000
 This molecule is an asymmetric top.
 Rotational symmetry number  1.
 Warning -- assumption of classical behavior for rotation
           may cause significant error
 Rotational temperatures (Kelvin)      0.03512     0.01086     0.00840
 Rotational constants (GHZ):           0.73170     0.22627     0.17503
 Zero-point vibrational energy     593261.5 (Joules/Mol)
                                  141.79291 (Kcal/Mol)
 Warning -- explicit consideration of  24 degrees of freedom as
           vibrations may cause significant error
 Vibrational temperatures:     43.92    57.03    80.91    87.11   105.94
          (Kelvin)            126.95   145.63   225.92   230.58   297.73
                              342.61   350.60   427.75   443.49   455.55
                              506.16   530.32   564.80   622.95   655.11
                              678.95   830.66   840.02   883.51   916.76
                              930.67   987.03  1090.99  1104.14  1106.11
                             1112.16  1154.79  1204.97  1272.59  1275.22
                             1306.00  1339.84  1423.77  1473.09  1505.34
                             1551.79  1600.32  1652.78  1683.24  1687.64
                             1701.47  1763.33  1794.29  1844.53  1846.28
                             1890.07  1914.38  1938.58  1962.06  2035.90
                             2047.22  2059.77  2146.78  2147.49  2158.83
                             2162.38  2177.29  2203.58  2231.70  2263.99
                             2318.29  2380.22  2438.35  2470.02  4425.29
                             4428.73  4437.62  4473.12  4501.85  4530.00
                             4543.47  4707.05  4721.55  4750.14  5172.59
                             5204.14

 Zero-point correction=                           0.225961 (Hartree/Particle)
 Thermal correction to Energy=                    0.242269
 Thermal correction to Enthalpy=                  0.243213
 Thermal correction to Gibbs Free Energy=         0.179954
 Sum of electronic and zero-point Energies=           -877.452469
 Sum of electronic and thermal Energies=              -877.436161
 Sum of electronic and thermal Enthalpies=            -877.435217
 Sum of electronic and thermal Free Energies=         -877.498476

                     E (Thermal)             CV                S
                      KCal/Mol        Cal/Mol-Kelvin    Cal/Mol-Kelvin
 Total                  152.026             59.264            133.140
 Electronic               0.000              0.000              0.000
 Translational            0.889              2.981             42.341
 Rotational               0.889              2.981             33.672
 Vibrational            150.249             53.302             57.127
 Vibration     1          0.594              1.984              5.795
 Vibration     2          0.594              1.981              5.277
 Vibration     3          0.596              1.975              4.585
 Vibration     4          0.597              1.973              4.439
 Vibration     5          0.599              1.966              4.054
 Vibration     6          0.601              1.957              3.699
 Vibration     7          0.604              1.948              3.431
 Vibration     8          0.621              1.895              2.585
 Vibration     9          0.622              1.891              2.547
 Vibration    10          0.641              1.830              2.071
 Vibration    11          0.656              1.782              1.817
 Vibration    12          0.659              1.773              1.776
 Vibration    13          0.691              1.679              1.432
 Vibration    14          0.698              1.658              1.372
 Vibration    15          0.704              1.642              1.327
 Vibration    16          0.728              1.572              1.158
 Vibration    17          0.741              1.537              1.086
 Vibration    18          0.760              1.486              0.990
 Vibration    19          0.794              1.398              0.849
 Vibration    20          0.814              1.349              0.780
 Vibration    21          0.829              1.312              0.732
 Vibration    22          0.934              1.080              0.490
 Vibration    23          0.941              1.066              0.478
 Vibration    24          0.973              1.002              0.426

 Optimization completed.
    -- Stationary point found.
 Normal termination of Gaussian 09 at Mon Feb  4 20:35:16 2019.
