 Gaussian 09, Revision E.01,

 ----------------------------------------------------------------------
 # M062X/Gen 6D SCF=Tight INT(grid=ultrafine) OPT IOP(2/17=4) SCRF=(SMD
 ,Solvent=h2o) maxdisk=2147483648
 ----------------------------------------------------------------------

 ---------------------------------------
 2Nitro4Fluro_a1.M062X_6-31pGd_opt_water
 ---------------------------------------
 Symbolic Z-matrix:
 Charge = -1 Multiplicity = 1

 SCF Done:  E(RM062X) =  -877.086259983     A.U. after   17 cycles
 SCF Done:  E(RM062X) =  -877.133162621     A.U. after   16 cycles
 SCF Done:  E(RM062X) =  -877.162800309     A.U. after   17 cycles
 SCF Done:  E(RM062X) =  -877.182360066     A.U. after   18 cycles
 SCF Done:  E(RM062X) =  -877.192009122     A.U. after   17 cycles
 SCF Done:  E(RM062X) =  -877.191475852     A.U. after   18 cycles
 SCF Done:  E(RM062X) =  -877.198082019     A.U. after   14 cycles
 SCF Done:  E(RM062X) =  -877.198917763     A.U. after   18 cycles
 SCF Done:  E(RM062X) =  -877.201080947     A.U. after   17 cycles
 SCF Done:  E(RM062X) =  -877.202740500     A.U. after   15 cycles
 SCF Done:  E(RM062X) =  -877.203451971     A.U. after   14 cycles
 SCF Done:  E(RM062X) =  -877.203463190     A.U. after   14 cycles
 SCF Done:  E(RM062X) =  -877.203470880     A.U. after   14 cycles
 SCF Done:  E(RM062X) =  -877.203473934     A.U. after   14 cycles
 SCF Done:  E(RM062X) =  -877.203475540     A.U. after   12 cycles
 SCF Done:  E(RM062X) =  -877.203475264     A.U. after   13 cycles
 SCF Done:  E(RM062X) =  -877.203474963     A.U. after   12 cycles
 SCF Done:  E(RM062X) =  -877.203474571     A.U. after   11 cycles
 Optimization completed.
    -- Stationary point found.
 Normal termination of Gaussian 09 at Mon Feb  4 20:28:24 2019.
 Gaussian 09:  ES64L-G09RevE.01 30-Nov-2015

 ----------------------------------------------------------------------
 # M062X/Gen 6D SCF=Tight INT(grid=ultrafine) OPT IOP(2/17=4) SCRF=(SMD
 ,Solvent=h2o) Freq=Noraman maxdisk=2147483648 geom=check guess=read IO
 P(2/17=4)
 ----------------------------------------------------------------------

 ---------------------------------------
 2Nitro4Fluro_a1.M062X_6-31pGd_opt_water
 ---------------------------------------
 Structure from the checkpoint file:  "2Nitro4Fluro_a1.M062X_6-31pGd_opt_water.chk"
 Charge = -1 Multiplicity = 1

 SCF Done:  E(RM062X) =  -877.203474571     A.U. after    1 cycles
 Optimization completed.
    -- Stationary point found.
 Normal termination of Gaussian 09 at Mon Feb  4 20:29:33 2019.

 ----------------------------------------------------------------------
 #N Geom=AllCheck Guess=TCheck SCRF=Check Test GenChk RM062X/ChkBas Fre
 q
 ----------------------------------------------------------------------

 Structure from the checkpoint file:  "2Nitro4Fluro_a1.M062X_6-31pGd_opt_water.chk"
 ---------------------------------------
 2Nitro4Fluro_a1.M062X_6-31pGd_opt_water
 ---------------------------------------
 Charge = -1 Multiplicity = 1

                         Standard orientation:
 ---------------------------------------------------------------------
 Center     Atomic      Atomic             Coordinates (Angstroms)
 Number     Number       Type             X           Y           Z
 ---------------------------------------------------------------------
      1          6           0       -6.263950    0.059264   -0.195245
      2          6           0       -4.879706   -0.368484   -0.672422
      3          6           0       -3.783989    0.235243    0.193700
      4          7           0       -2.472068   -0.186561   -0.273915
      5          6           0       -1.327260    0.200302    0.359160
      6          8           0       -1.377789    1.112449    1.224328
      7          7           0       -0.224523   -0.523337    0.012107
      8          6           0        0.990022    0.037171    0.028945
      9          6           0        2.202096   -0.739255   -0.026276
     10          6           0        1.203101    1.456650   -0.035002
     11          6           0        2.459687    1.974715   -0.151746
     12          6           0        3.635374    1.209988   -0.214910
     13          6           0        3.477556   -0.152430   -0.161970
     14          1           0       -7.048541   -0.374884   -0.822229
     15          1           0       -6.369836    1.149346   -0.229570
     16          1           0       -4.729115   -0.057368   -1.713380
     17          1           0       -4.797558   -1.462627   -0.648238
     18          1           0       -3.929531   -0.062238    1.241981
     19          1           0       -3.842199    1.328466    0.157446
     20          1           0       -2.419955   -1.038929   -0.819491
     21          1           0        0.353666    2.127914   -0.024629
     22          9           0        2.591162    3.319985   -0.223754
     23          7           0        2.190245   -2.162903    0.053068
     24          1           0        4.606506    1.683996   -0.293659
     25          8           0        3.198872   -2.789441   -0.311010
     26          8           0        1.206135   -2.757968    0.491970
     27          1           0       -6.440037   -0.263528    0.836885
     28          1           0        4.345234   -0.799720   -0.197852
 ---------------------------------------------------------------------

 SCF Done:  E(RM062X) =  -877.203474571     A.U. after    1 cycles

 The electronic state is 1-A.
 Alpha  occ. eigenvalues --  -25.28493 -19.67815 -19.67298 -19.60548 -15.00932
 Alpha  occ. eigenvalues --  -14.76873 -14.72712 -10.66250 -10.64851 -10.61725
 Alpha  occ. eigenvalues --  -10.59741 -10.57294 -10.56868 -10.55443 -10.55144
 Alpha  occ. eigenvalues --  -10.53811 -10.52772  -1.37743  -1.35645  -1.16508
 Alpha  occ. eigenvalues --   -1.15294  -1.02506  -1.01207  -0.95968  -0.90822
 Alpha  occ. eigenvalues --   -0.87536  -0.84290  -0.78993  -0.76385  -0.71959
 Alpha  occ. eigenvalues --   -0.68595  -0.67524  -0.65743  -0.63550  -0.61985
 Alpha  occ. eigenvalues --   -0.61551  -0.60798  -0.58842  -0.57131  -0.56047
 Alpha  occ. eigenvalues --   -0.54411  -0.54083  -0.51580  -0.50823  -0.49688
 Alpha  occ. eigenvalues --   -0.48900  -0.48206  -0.46020  -0.45491  -0.43877
 Alpha  occ. eigenvalues --   -0.42732  -0.41676  -0.40250  -0.39439  -0.38838
 Alpha  occ. eigenvalues --   -0.38597  -0.37666  -0.37181  -0.34990  -0.32013
 Alpha  occ. eigenvalues --   -0.31232  -0.30178  -0.24706
 Alpha virt. eigenvalues --   -0.05135   0.01699   0.02299   0.03467   0.03668
 Alpha virt. eigenvalues --    0.04230   0.04311   0.04776   0.04920   0.05486
 Alpha virt. eigenvalues --    0.06216   0.06951   0.07169   0.07966   0.08524

 Mulliken charges:
               1
     1  C   -0.752501
     2  C   -0.347247
     3  C   -0.328789
     4  N   -0.606522
     5  C    0.917402
     6  O   -0.796291
     7  N   -0.481504
     8  C    0.256300
     9  C   -0.276575
    10  C   -0.069506
    11  C   -0.246018
    12  C   -0.238684
    13  C    0.165565
    14  H    0.221557
    15  H    0.220786
    16  H    0.230993
    17  H    0.227862
    18  H    0.221077
    19  H    0.228946
    20  H    0.460881
    21  H    0.265259
    22  F   -0.354003
    23  N   -0.442455
    24  H    0.270013
    25  O   -0.171075
    26  O   -0.076335
    27  H    0.221026
    28  H    0.279837
 Sum of Mulliken charges =  -1.00000

 Dipole moment (field-independent basis, Debye):
    X=             -4.2891    Y=              3.2261    Z=             -3.8330  Tot=              6.5952
 Quadrupole moment (field-independent basis, Debye-Ang):
   XX=            -98.3608   YY=           -135.0558   ZZ=           -108.4631
   XY=             17.9089   XZ=              6.9886   YZ=             -2.8882

  Exact polarizability: 325.789 -11.042 281.347 -15.239   4.624 153.403
 Approx polarizability: 247.696   1.469 227.033 -12.560   3.482 134.488

                      1                      2                      3
                      A                      A                      A
 Frequencies --     22.7667                35.7127                51.1344
 Red. masses --      5.9530                 9.6881                 1.8667
 Frc consts  --      0.0018                 0.0073                 0.0029
 IR Inten    --     23.7255                 5.6101                 6.9523

                      4                      5                      6
                      A                      A                      A
 Frequencies --     63.4625                82.4150                90.6310
 Red. masses --      4.1646                 4.1007                 6.6601
 Frc consts  --      0.0099                 0.0164                 0.0322
 IR Inten    --      6.2647                13.7343                 2.5580

                      7                      8                      9
                      A                      A                      A
 Frequencies --    108.9180               148.4643               177.1421
 Red. masses --      5.3117                 4.7688                 3.4173
 Frc consts  --      0.0371                 0.0619                 0.0632
 IR Inten    --      6.7959                 7.4903                15.0916

                     10                     11                     12
                      A                      A                      A
 Frequencies --    195.1765               224.4977               240.0245
 Red. masses --      6.9463                 6.5155                 1.1412
 Frc consts  --      0.1559                 0.1935                 0.0387
 IR Inten    --      0.4430                 8.1414                 0.1604

                     13                     14                     15
                      A                      A                      A
 Frequencies --    296.1285               303.0585               334.5860
 Red. masses --      8.5577                 6.4779                 4.2364
 Frc consts  --      0.4422                 0.3505                 0.2794
 IR Inten    --      0.2020                 5.7754                14.3766

                     16                     17                     18
                      A                      A                      A
 Frequencies --    356.2221               370.5552               429.5885
 Red. masses --      8.7227                 8.8795                 2.6962
 Frc consts  --      0.6521                 0.7184                 0.2932
 IR Inten    --     42.7311                17.2561                92.7561

                     19                     20                     21
                      A                      A                      A
 Frequencies --    442.0485               457.0027               488.3340
 Red. masses --      1.8382                 2.7396                 4.6801
 Frc consts  --      0.2116                 0.3371                 0.6576
 IR Inten    --    152.3607                12.7423                27.7328

                     22                     23                     24
                      A                      A                      A
 Frequencies --    587.9711               611.5902               640.8582
 Red. masses --      5.7617                 6.4973                 6.5090
 Frc consts  --      1.1736                 1.4319                 1.5750
 IR Inten    --     36.7219                63.8180                19.5274

                     25                     26                     27
                      A                      A                      A
 Frequencies --    655.9609               692.6637               741.3680
 Red. masses --      4.2825                 4.0319                 7.7778
 Frc consts  --      1.0857                 1.1397                 2.5187
 IR Inten    --     14.5217                41.4297               256.5875

                     28                     29                     30
                      A                      A                      A
 Frequencies --    760.3039               764.9495               770.0115
 Red. masses --      1.1188                 4.6382                 2.5674
 Frc consts  --      0.3810                 1.5991                 0.8969
 IR Inten    --     10.4796                35.5947                92.2993

                     31                     32                     33
                      A                      A                      A
 Frequencies --    806.2296               824.0075               865.6574
 Red. masses --      4.2431                 4.9680                 3.2435
 Frc consts  --      1.6250                 1.9874                 1.4321
 IR Inten    --    118.5448                28.3105                54.9896

                     34                     35                     36
                      A                      A                      A
 Frequencies --    874.3931               904.8964               930.2418
 Red. masses --      2.3191                 1.1537                 1.6622
 Frc consts  --      1.0447                 0.5566                 0.8475
 IR Inten    --     52.4287                13.5999                 1.2672

                     37                     38                     39
                      A                      A                      A
 Frequencies --    983.4379              1011.3838              1036.1623
 Red. masses --      1.3167                 4.0512                 4.2001
 Frc consts  --      0.7503                 2.4416                 2.6568
 IR Inten    --      9.7798               106.6342                23.4148

                     40                     41                     42
                      A                      A                      A
 Frequencies --   1079.1933              1086.4957              1137.0801
 Red. masses --      2.8060                 2.9485                 2.2166
 Frc consts  --      1.9255                 2.0508                 1.6886
 IR Inten    --    261.9231              1158.4355               218.6991

                     43                     44                     45
                      A                      A                      A
 Frequencies --   1165.3250              1172.7090              1182.5378
 Red. masses --      1.6364                 1.7904                 2.2484
 Frc consts  --      1.3093                 1.4507                 1.8525
 IR Inten    --    230.8067                15.9265                 3.7271

                     46                     47                     48
                      A                      A                      A
 Frequencies --   1223.1204              1259.5112              1264.6873
 Red. masses --      2.3127                 7.4737                 1.6237
 Frc consts  --      2.0385                 6.9854                 1.5301
 IR Inten    --    861.0205              2753.3718               189.3520

                     49                     50                     51
                      A                      A                      A
 Frequencies --   1272.0031              1284.1361              1324.4513
 Red. masses --      1.5745                 1.5840                 1.0849
 Frc consts  --      1.5009                 1.5390                 1.1212
 IR Inten    --     29.4765               262.0834                11.5292

                     52                     53                     54
                      A                      A                      A
 Frequencies --   1344.0899              1383.5749              1408.8983
 Red. masses --      1.5046                 3.6694                 2.4216
 Frc consts  --      1.6015                 4.1385                 2.8321
 IR Inten    --    107.7188                73.5585               119.7246

                     55                     56                     57
                      A                      A                      A
 Frequencies --   1422.4758              1435.4089              1489.2077
 Red. masses --      1.4055                 2.1961                 1.2654
 Frc consts  --      1.6755                 2.6660                 1.6535
 IR Inten    --     36.7476                85.9778               321.1660

                     58                     59                     60
                      A                      A                      A
 Frequencies --   1494.1726              1502.4716              1509.2228
 Red. masses --      2.8816                 1.0402                 1.4702
 Frc consts  --      3.7904                 1.3835                 1.9731
 IR Inten    --    556.2160                12.3536               169.3501

                     61                     62                     63
                      A                      A                      A
 Frequencies --   1516.8978              1528.1396              1534.9826
 Red. masses --      2.0739                 1.5033                 1.9144
 Frc consts  --      2.8116                 2.0683                 2.6576
 IR Inten    --    433.7281               200.2276               918.3276

                     64                     65                     66
                      A                      A                      A
 Frequencies --   1553.2577              1580.6352              1622.2762
 Red. masses --      8.1704                 6.0123                 7.6283
 Frc consts  --     11.6140                 8.8502                11.8284
 IR Inten    --   1299.0942               716.9765               236.0151

                     67                     68                     69
                      A                      A                      A
 Frequencies --   1699.1531              3054.6435              3071.3691
 Red. masses --      7.6382                 1.0665                 1.0611
 Frc consts  --     12.9929                 5.8633                 5.8974
 IR Inten    --    565.1800                67.1823                54.6589

                     70                     71                     72
                      A                      A                      A
 Frequencies --   3076.1708              3102.8927              3120.0211
 Red. masses --      1.0363                 1.0970                 1.1029
 Frc consts  --      5.7780                 6.2229                 6.3254
 IR Inten    --     47.1806                10.5865                67.2508

                     73                     74                     75
                      A                      A                      A
 Frequencies --   3145.4047              3154.8046              3266.6638
 Red. masses --      1.1037                 1.1022                 1.0906
 Frc consts  --      6.4337                 6.4634                 6.8569
 IR Inten    --     93.2535                50.5190                 1.6695

                     76                     77                     78
                      A                      A                      A
 Frequencies --   3276.9628              3279.0539              3621.6512
 Red. masses --      1.0919                 1.0962                 1.0783
 Frc consts  --      6.9085                 6.9444                 8.3333
 IR Inten    --      8.2549                 5.0071               101.3324

 - Thermochemistry -
 -------------------
 Temperature   298.150 Kelvin.  Pressure   1.00000 Atm.
 Atom     1 has atomic number  6 and mass  12.00000

 Molecular mass:   240.07844 amu.
 Principal axes and moments of inertia in atomic units:
                           1         2         3
     Eigenvalues --  2524.488957892.50441**********
           X            0.99999  -0.00105   0.00386
           Y            0.00104   0.99999   0.00360
           Z           -0.00387  -0.00360   0.99999
 This molecule is an asymmetric top.
 Rotational symmetry number  1.
 Warning -- assumption of classical behavior for rotation
           may cause significant error
 Rotational temperatures (Kelvin)      0.03431     0.01097     0.00860
 Rotational constants (GHZ):           0.71489     0.22867     0.17910
 Zero-point vibrational energy     556417.3 (Joules/Mol)
                                  132.98693 (Kcal/Mol)
 Warning -- explicit consideration of  23 degrees of freedom as
           vibrations may cause significant error
 Vibrational temperatures:     32.76    51.38    73.57    91.31   118.58
          (Kelvin)            130.40   156.71   213.61   254.87   280.82
                              323.00   345.34   426.06   436.03   481.39
                              512.52   533.15   618.08   636.01   657.52
                              702.60   845.96   879.94   922.05   943.78
                              996.59  1066.66  1093.91  1100.59  1107.87
                             1159.98  1185.56  1245.49  1258.06  1301.94
                             1338.41  1414.95  1455.15  1490.80  1552.72
                             1563.22  1636.00  1676.64  1687.26  1701.41
                             1759.80  1812.15  1819.60  1830.13  1847.58
                             1905.59  1933.84  1990.65  2027.09  2046.62
                             2065.23  2142.64  2149.78  2161.72  2171.43
                             2182.47  2198.65  2208.49  2234.79  2274.18
                             2334.09  2444.70  4394.95  4419.01  4425.92
                             4464.36  4489.01  4525.53  4539.05  4699.99
                             4714.81  4717.82  5210.74

 Zero-point correction=                           0.211928 (Hartree/Particle)
 Thermal correction to Energy=                    0.228028
 Thermal correction to Enthalpy=                  0.228972
 Thermal correction to Gibbs Free Energy=         0.165774
 Sum of electronic and zero-point Energies=           -876.991546
 Sum of electronic and thermal Energies=              -876.975446
 Sum of electronic and thermal Enthalpies=            -876.974502
 Sum of electronic and thermal Free Energies=         -877.037700

                     E (Thermal)             CV                S
                      KCal/Mol        Cal/Mol-Kelvin    Cal/Mol-Kelvin
 Total                  143.090             58.174            133.012
 Electronic               0.000              0.000              0.000
 Translational            0.889              2.981             42.329
 Rotational               0.889              2.981             33.662
 Vibrational            141.312             52.212             57.021
 Vibration     1          0.593              1.985              6.377
 Vibration     2          0.594              1.982              5.484
 Vibration     3          0.595              1.977              4.773
 Vibration     4          0.597              1.972              4.347
 Vibration     5          0.600              1.961              3.833
 Vibration     6          0.602              1.956              3.646
 Vibration     7          0.606              1.942              3.288
 Vibration     8          0.618              1.904              2.692
 Vibration     9          0.628              1.870              2.358
 Vibration    10          0.636              1.847              2.178
 Vibration    11          0.649              1.804              1.923
 Vibration    12          0.657              1.779              1.803
 Vibration    13          0.690              1.681              1.439
 Vibration    14          0.695              1.668              1.400
 Vibration    15          0.716              1.606              1.238
 Vibration    16          0.732              1.562              1.139
 Vibration    17          0.743              1.533              1.077
 Vibration    18          0.791              1.406              0.860
 Vibration    19          0.802              1.378              0.820
 Vibration    20          0.815              1.345              0.775
 Vibration    21          0.844              1.276              0.688
 Vibration    22          0.945              1.057              0.471
 Vibration    23          0.971              1.007              0.430

 Normal termination of Gaussian 09 at Mon Feb  4 21:11:23 2019.
