 Gaussian 09, Revision E.01,

 ----------------------------------------------------------------------
 # M062X/Gen 6D SCF=Tight INT(grid=ultrafine) OPT IOP(2/17=4) maxdisk=2
 147483648
 ----------------------------------------------------------------------

 ---------------------------------
 2Nitro4Fluro_a1.M062X_6-31pGd_opt
 ---------------------------------
 Symbolic Z-matrix:
 Charge = -1 Multiplicity = 1

 SCF Done:  E(RM062X) =  -876.987524187     A.U. after   23 cycles
 SCF Done:  E(RM062X) =  -877.038577314     A.U. after   16 cycles
 SCF Done:  E(RM062X) =  -877.103326020     A.U. after   19 cycles
 SCF Done:  E(RM062X) =  -877.104862422     A.U. after   19 cycles
 SCF Done:  E(RM062X) =  -877.107695620     A.U. after   19 cycles
 SCF Done:  E(RM062X) =  -877.116748449     A.U. after   17 cycles
 SCF Done:  E(RM062X) =  -877.118683919     A.U. after   17 cycles
 SCF Done:  E(RM062X) =  -877.118339348     A.U. after   19 cycles
 SCF Done:  E(RM062X) =  -877.119059631     A.U. after   15 cycles
 SCF Done:  E(RM062X) =  -877.119201483     A.U. after   17 cycles
 SCF Done:  E(RM062X) =  -877.120815841     A.U. after   14 cycles
 SCF Done:  E(RM062X) =  -877.120818723     A.U. after   14 cycles
 SCF Done:  E(RM062X) =  -877.120819327     A.U. after   13 cycles
 SCF Done:  E(RM062X) =  -877.120819444     A.U. after   13 cycles
 SCF Done:  E(RM062X) =  -877.120819459     A.U. after   12 cycles
 SCF Done:  E(RM062X) =  -877.120819427     A.U. after   12 cycles
 SCF Done:  E(RM062X) =  -877.120819396     A.U. after   12 cycles
 SCF Done:  E(RM062X) =  -877.120819375     A.U. after   11 cycles
 Optimization completed.
    -- Stationary point found.
 Normal termination of Gaussian 09 at Mon Feb  4 20:02:18 2019.
 Gaussian 09:  ES64L-G09RevE.01 30-Nov-2015

 ----------------------------------------------------------------------
 # M062X/Gen 6D SCF=Tight INT(grid=ultrafine) OPT IOP(2/17=4) Freq=Nora
 man maxdisk=2147483648 geom=check guess=read IOP(2/17=4)
 ----------------------------------------------------------------------

 ---------------------------------
 2Nitro4Fluro_a1.M062X_6-31pGd_opt
 ---------------------------------
 Structure from the checkpoint file:  "2Nitro4Fluro_a1.M062X_6-31pGd_opt.chk"
 Charge = -1 Multiplicity = 1

 SCF Done:  E(RM062X) =  -877.120819375     A.U. after    2 cycles
 Optimization completed.
    -- Stationary point found.
 Normal termination of Gaussian 09 at Mon Feb  4 20:03:19 2019.

 ----------------------------------------------------------------------
 #N Geom=AllCheck Guess=TCheck SCRF=Check Test GenChk RM062X/ChkBas Fre
 q
 ----------------------------------------------------------------------

 Structure from the checkpoint file:  "2Nitro4Fluro_a1.M062X_6-31pGd_opt.chk"
 ---------------------------------
 2Nitro4Fluro_a1.M062X_6-31pGd_opt
 ---------------------------------
 Charge = -1 Multiplicity = 1

                         Standard orientation:
 ---------------------------------------------------------------------
 Center     Atomic      Atomic             Coordinates (Angstroms)
 Number     Number       Type             X           Y           Z
 ---------------------------------------------------------------------
      1          6           0       -6.263335    0.207150   -0.139411
      2          6           0       -4.895972   -0.289102   -0.605850
      3          6           0       -3.778176    0.133229    0.346174
      4          7           0       -2.491102   -0.354106   -0.081715
      5          6           0       -1.326313    0.391825    0.138287
      6          8           0       -1.418772    1.604749    0.387331
      7          7           0       -0.229627   -0.403161    0.032092
      8          6           0        1.009579    0.099605    0.050557
      9          6           0        2.137311   -0.791554   -0.005942
     10          6           0        1.371251    1.490756    0.038049
     11          6           0        2.683604    1.870432   -0.062463
     12          6           0        3.765024    0.990402   -0.161603
     13          6           0        3.455728   -0.358524   -0.141308
     14          1           0       -7.060490   -0.093570   -0.827771
     15          1           0       -6.275903    1.300934   -0.067004
     16          1           0       -4.665282    0.099849   -1.604551
     17          1           0       -4.908764   -1.384535   -0.691730
     18          1           0       -4.025427   -0.206693    1.368613
     19          1           0       -3.700911    1.223936    0.382407
     20          1           0       -2.322408   -1.351601   -0.040747
     21          1           0        0.588954    2.234750    0.100170
     22          9           0        2.968169    3.201793   -0.073359
     23          7           0        1.966935   -2.232533    0.068469
     24          1           0        4.780657    1.360214   -0.237107
     25          8           0        2.751957   -2.934214   -0.578100
     26          8           0        1.101049   -2.699973    0.786783
     27          1           0       -6.508667   -0.191517    0.852243
     28          1           0        4.235195   -1.109110   -0.213271
 ---------------------------------------------------------------------

 SCF Done:  E(RM062X) =  -877.120819375     A.U. after    1 cycles

 The electronic state is 1-A.
 Alpha  occ. eigenvalues --  -25.15995 -19.54583 -19.54047 -19.46281 -14.87475
 Alpha  occ. eigenvalues --  -14.63775 -14.58271 -10.52192 -10.52023 -10.47935
 Alpha  occ. eigenvalues --  -10.46648 -10.46356 -10.45703 -10.45295 -10.45104
 Alpha  occ. eigenvalues --  -10.43560 -10.41879  -1.25011  -1.22602  -1.03674
 Alpha  occ. eigenvalues --   -1.01469  -0.89310  -0.88032  -0.82913  -0.78175
 Alpha  occ. eigenvalues --   -0.77169  -0.71818  -0.67336  -0.64653  -0.60071
 Alpha  occ. eigenvalues --   -0.57523  -0.55386  -0.52944  -0.50360  -0.49212
 Alpha  occ. eigenvalues --   -0.48658  -0.46974  -0.46094  -0.44549  -0.44371
 Alpha  occ. eigenvalues --   -0.43476  -0.41428  -0.39836  -0.38946  -0.37713
 Alpha  occ. eigenvalues --   -0.36999  -0.36204  -0.35485  -0.34268  -0.32770
 Alpha  occ. eigenvalues --   -0.31982  -0.30674  -0.30221  -0.29513  -0.25825
 Alpha  occ. eigenvalues --   -0.24457  -0.24293  -0.23172  -0.21372  -0.18759
 Alpha  occ. eigenvalues --   -0.17931  -0.16285  -0.11217
 Alpha virt. eigenvalues --    0.09115   0.09985   0.11681   0.11888   0.12955
 Alpha virt. eigenvalues --    0.13310   0.13601   0.14292   0.14637   0.15308
 Alpha virt. eigenvalues --    0.16080   0.16308   0.16614   0.16711   0.17479

 Mulliken charges:
               1
     1  C   -0.737968
     2  C   -0.242872
     3  C   -0.222382
     4  N   -0.507206
     5  C    0.632233
     6  O   -0.643797
     7  N   -0.455839
     8  C    0.604082
     9  C   -0.862158
    10  C   -0.424003
    11  C    0.235438
    12  C   -0.136722
    13  C    0.063246
    14  H    0.191927
    15  H    0.206383
    16  H    0.217494
    17  H    0.193746
    18  H    0.176733
    19  H    0.251819
    20  H    0.408281
    21  H    0.280778
    22  F   -0.360613
    23  N   -0.381863
    24  H    0.194549
    25  O   -0.106068
    26  O   -0.002039
    27  H    0.200070
    28  H    0.226750
 Sum of Mulliken charges =  -1.00000

 Dipole moment (field-independent basis, Debye):
    X=             -2.9456    Y=              0.7300    Z=             -0.2265  Tot=              3.0432
 Quadrupole moment (field-independent basis, Debye-Ang):
   XX=           -121.5270   YY=           -134.1301   ZZ=           -106.6315
   XY=              8.7316   XZ=              1.9173   YZ=             -1.8936

  Exact polarizability: 248.788   2.147 173.230 -10.559   2.136 104.242
 Approx polarizability: 256.257   6.796 219.271 -19.458   3.191 138.400

                      1                      2                      3
                      A                      A                      A
 Frequencies --     13.6773                39.6528                43.4684
 Red. masses --      3.2333                 6.7922                 4.4861
 Frc consts  --      0.0004                 0.0063                 0.0050
 IR Inten    --      0.8043                 4.6073                 3.3699

                      4                      5                      6
                      A                      A                      A
 Frequencies --     56.4524                73.8390                95.0042
 Red. masses --      5.1575                 2.6439                 6.4178
 Frc consts  --      0.0097                 0.0085                 0.0341
 IR Inten    --      5.1787                 0.2958                 1.9009

                      7                      8                      9
                      A                      A                      A
 Frequencies --    106.8674               133.2470               194.0590
 Red. masses --      5.3509                 4.9134                 7.1311
 Frc consts  --      0.0360                 0.0514                 0.1582
 IR Inten    --      0.9861                 3.4405                 0.3319

                     10                     11                     12
                      A                      A                      A
 Frequencies --    226.1290               234.8052               236.0003
 Red. masses --      2.3812                 3.7173                 1.5785
 Frc consts  --      0.0717                 0.1208                 0.0518
 IR Inten    --      0.8930                 0.9563                 0.3437

                     13                     14                     15
                      A                      A                      A
 Frequencies --    281.0822               284.1540               325.7505
 Red. masses --      6.2266                 6.1029                 6.1412
 Frc consts  --      0.2898                 0.2903                 0.3839
 IR Inten    --      0.9766                 0.6532                 0.9260

                     16                     17                     18
                      A                      A                      A
 Frequencies --    356.8950               367.2083               434.7446
 Red. masses --      8.3398                 8.4947                 5.3921
 Frc consts  --      0.6259                 0.6749                 0.6005
 IR Inten    --      5.4493                24.4298                 6.8089

                     19                     20                     21
                      A                      A                      A
 Frequencies --    465.7958               477.5714               573.4017
 Red. masses --      3.4817                 4.1836                 3.4973
 Frc consts  --      0.4451                 0.5622                 0.6775
 IR Inten    --      7.4337                 5.4783                10.8344

                     22                     23                     24
                      A                      A                      A
 Frequencies --    600.4635               617.9011               642.9275
 Red. masses --      2.5444                 3.9958                 3.2761
 Frc consts  --      0.5405                 0.8989                 0.7979
 IR Inten    --     58.3507                44.1171                33.2642

                     25                     26                     27
                      A                      A                      A
 Frequencies --    656.6718               706.4385               747.4713
 Red. masses --      3.4533                 4.4862                 1.3510
 Frc consts  --      0.8774                 1.3191                 0.4447
 IR Inten    --      5.0931                 9.4343                 1.8459

                     28                     29                     30
                      A                      A                      A
 Frequencies --    758.1557               775.1241               782.1039
 Red. masses --      1.7364                 3.4108                 4.8738
 Frc consts  --      0.5880                 1.2074                 1.7565
 IR Inten    --     39.7400                37.4325                 8.5124

                     31                     32                     33
                      A                      A                      A
 Frequencies --    800.1740               814.2270               874.0944
 Red. masses --      8.2865                 5.1483                 6.9043
 Frc consts  --      3.1260                 2.0110                 3.1080
 IR Inten    --     26.4104                 0.6467                25.5387

                     34                     35                     36
                      A                      A                      A
 Frequencies --    889.7398               902.9669               919.6378
 Red. masses --      1.3455                 1.4375                 1.6687
 Frc consts  --      0.6276                 0.6905                 0.8315
 IR Inten    --     12.3801                41.5799                 2.9826

                     37                     38                     39
                      A                      A                      A
 Frequencies --    956.8869              1003.7197              1022.6559
 Red. masses --      1.3313                 3.8162                 3.2115
 Frc consts  --      0.7182                 2.2652                 1.9789
 IR Inten    --      7.8466                90.4712                20.0842

                     40                     41                     42
                      A                      A                      A
 Frequencies --   1069.7235              1093.7187              1143.1921
 Red. masses --      2.6236                 2.9946                 2.0673
 Frc consts  --      1.7688                 2.1106                 1.5918
 IR Inten    --      0.6658               160.0794                60.0922

                     43                     44                     45
                      A                      A                      A
 Frequencies --   1150.9738              1165.9292              1187.5572
 Red. masses --      1.7695                 1.6427                 2.0822
 Frc consts  --      1.3811                 1.3157                 1.7301
 IR Inten    --     54.9601                 6.5465                17.7682

                     46                     47                     48
                      A                      A                      A
 Frequencies --   1217.0708              1256.0037              1267.5696
 Red. masses --      2.4770                 1.8300                 1.7962
 Frc consts  --      2.1618                 1.7009                 1.7004
 IR Inten    --    131.0964               260.6832                42.5590

                     49                     50                     51
                      A                      A                      A
 Frequencies --   1280.8274              1320.8742              1340.0397
 Red. masses --      1.7039                 1.2001                 1.3523
 Frc consts  --      1.6469                 1.2336                 1.4307
 IR Inten    --    459.5935                81.7715                57.3480

                     52                     53                     54
                      A                      A                      A
 Frequencies --   1348.5535              1378.8708              1421.3498
 Red. masses --      4.1271                 5.0498                 1.5930
 Frc consts  --      4.4222                 5.6568                 1.8961
 IR Inten    --    104.4385               745.8151                68.9180

                     55                     56                     57
                      A                      A                      A
 Frequencies --   1427.6828              1447.6055              1510.4691
 Red. masses --      1.4097                 5.1745                 1.5686
 Frc consts  --      1.6929                 6.3888                 2.1086
 IR Inten    --     19.5432               152.3305               144.5146

                     58                     59                     60
                      A                      A                      A
 Frequencies --   1511.8807              1520.4627              1521.9806
 Red. masses --      1.5881                 1.2311                 1.1066
 Frc consts  --      2.1387                 1.6769                 1.5103
 IR Inten    --     75.4487               128.1211                38.1203

                     61                     62                     63
                      A                      A                      A
 Frequencies --   1526.5726              1532.4856              1552.5843
 Red. masses --      1.8746                 1.0850                 5.9085
 Frc consts  --      2.5739                 1.5013                 8.3915
 IR Inten    --    644.8441                15.6818               509.2949

                     64                     65                     66
                      A                      A                      A
 Frequencies --   1606.5148              1659.6200              1678.4888
 Red. masses --      7.1328                 9.6793                 8.7498
 Frc consts  --     10.8463                15.7076                14.5239
 IR Inten    --    205.6442                86.9695               959.0057

                     67                     68                     69
                      A                      A                      A
 Frequencies --   1720.3745              2977.2244              3057.7762
 Red. masses --      8.7408                 1.0735                 1.0656
 Frc consts  --     15.2423                 5.6061                 5.8702
 IR Inten    --    280.5545               125.1565                33.7641

                     70                     71                     72
                      A                      A                      A
 Frequencies --   3064.0323              3104.0402              3131.7630
 Red. masses --      1.0357                 1.0964                 1.0988
 Frc consts  --      5.7288                 6.2241                 6.3499
 IR Inten    --     50.3672                10.7522                40.3994

                     73                     74                     75
                      A                      A                      A
 Frequencies --   3136.5453              3142.3328              3245.7245
 Red. masses --      1.1013                 1.0921                 1.0880
 Frc consts  --      6.3836                 6.3537                 6.7528
 IR Inten    --     53.4412                32.2117                 0.7117

                     76                     77                     78
                      A                      A                      A
 Frequencies --   3260.7490              3291.1773              3631.9388
 Red. masses --      1.0960                 1.0907                 1.0764
 Frc consts  --      6.8657                 6.9606                 8.3660
 IR Inten    --      7.0802                18.5581                15.0765

 - Thermochemistry -
 -------------------
 Temperature   298.150 Kelvin.  Pressure   1.00000 Atm.
 Atom     1 has atomic number  6 and mass  12.00000

 Molecular mass:   240.07844 amu.
 Principal axes and moments of inertia in atomic units:
                           1         2         3
     Eigenvalues --  2513.930127874.79959**********
           X            0.99999  -0.00450   0.00144
           Y            0.00450   0.99999   0.00191
           Z           -0.00145  -0.00191   1.00000
 This molecule is an asymmetric top.
 Rotational symmetry number  1.
 Warning -- assumption of classical behavior for rotation
           may cause significant error
 Rotational temperatures (Kelvin)      0.03445     0.01100     0.00852
 Rotational constants (GHZ):           0.71790     0.22918     0.17757
 Zero-point vibrational energy     558616.8 (Joules/Mol)
                                  133.51263 (Kcal/Mol)
 Warning -- explicit consideration of  23 degrees of freedom as
           vibrations may cause significant error
 Vibrational temperatures:     19.68    57.05    62.54    81.22   106.24
          (Kelvin)            136.69   153.76   191.71   279.21   325.35
                              337.83   339.55   404.41   408.83   468.68
                              513.49   528.33   625.50   670.18   687.12
                              825.00   863.93   889.02   925.03   944.80
                             1016.41  1075.44  1090.82  1115.23  1125.27
                             1151.27  1171.49  1257.63  1280.14  1299.17
                             1323.15  1376.75  1444.13  1471.37  1539.09
                             1573.62  1644.80  1655.99  1677.51  1708.63
                             1751.09  1807.11  1823.75  1842.82  1900.44
                             1928.02  1940.27  1983.89  2045.00  2054.11
                             2082.78  2173.23  2175.26  2187.60  2189.79
                             2196.39  2204.90  2233.82  2311.41  2387.82
                             2414.97  2475.23  4283.56  4399.45  4408.45
                             4466.02  4505.90  4512.78  4521.11  4669.87
                             4691.48  4735.26  5225.54

 Zero-point correction=                           0.212766 (Hartree/Particle)
 Thermal correction to Energy=                    0.228797
 Thermal correction to Enthalpy=                  0.229741
 Thermal correction to Gibbs Free Energy=         0.166029
 Sum of electronic and zero-point Energies=           -876.908053
 Sum of electronic and thermal Energies=              -876.892022
 Sum of electronic and thermal Enthalpies=            -876.891078
 Sum of electronic and thermal Free Energies=         -876.954791

                     E (Thermal)             CV                S
                      KCal/Mol        Cal/Mol-Kelvin    Cal/Mol-Kelvin
 Total                  143.572             57.768            134.095
 Electronic               0.000              0.000              0.000
 Translational            0.889              2.981             42.329
 Rotational               0.889              2.981             33.664
 Vibrational            141.795             51.806             58.102
 Vibration     1          0.593              1.986              7.389
 Vibration     2          0.594              1.981              5.276
 Vibration     3          0.595              1.980              5.094
 Vibration     4          0.596              1.975              4.578
 Vibration     5          0.599              1.966              4.048
 Vibration     6          0.603              1.953              3.554
 Vibration     7          0.606              1.944              3.325
 Vibration     8          0.613              1.920              2.899
 Vibration     9          0.635              1.848              2.189
 Vibration    10          0.650              1.801              1.909
 Vibration    11          0.655              1.788              1.842
 Vibration    12          0.655              1.786              1.833
 Vibration    13          0.681              1.709              1.527
 Vibration    14          0.683              1.703              1.509
 Vibration    15          0.710              1.624              1.281
 Vibration    16          0.732              1.561              1.136
 Vibration    17          0.740              1.540              1.091
 Vibration    18          0.795              1.394              0.843
 Vibration    19          0.823              1.326              0.749
 Vibration    20          0.834              1.300              0.717
 Vibration    21          0.930              1.089              0.498
 Vibration    22          0.959              1.031              0.449
 Vibration    23          0.978              0.994              0.420

 Optimization completed.
    -- Stationary point found.
 Normal termination of Gaussian 09 at Mon Feb  4 20:41:36 2019.
