 Gaussian 09, Revision E.01,

 ----------------------------------------------------------------------
 # M062X/Gen 6D SCF=Tight INT(grid=ultrafine) OPT IOP(2/17=4) SCRF=(SMD
 ,Solvent=h2o) maxdisk=2147483648
 ----------------------------------------------------------------------

 ---------------------------------
 3Nitro_a1.M062X_6-31pGd_opt_water
 ---------------------------------
 Symbolic Z-matrix:
 Charge = -1 Multiplicity = 1

 SCF Done:  E(RM062X) =  -777.937963446     A.U. after   20 cycles
 SCF Done:  E(RM062X) =  -777.979472190     A.U. after   17 cycles
 SCF Done:  E(RM062X) =  -777.985411802     A.U. after   16 cycles
 SCF Done:  E(RM062X) =  -777.988861376     A.U. after   16 cycles
 SCF Done:  E(RM062X) =  -777.987059905     A.U. after   16 cycles
 SCF Done:  E(RM062X) =  -777.989293280     A.U. after   13 cycles
 SCF Done:  E(RM062X) =  -777.989755337     A.U. after   16 cycles
 SCF Done:  E(RM062X) =  -777.990119053     A.U. after   15 cycles
 SCF Done:  E(RM062X) =  -777.990173611     A.U. after   16 cycles
 SCF Done:  E(RM062X) =  -777.990388654     A.U. after   15 cycles
 SCF Done:  E(RM062X) =  -777.991422701     A.U. after   15 cycles
 SCF Done:  E(RM062X) =  -777.991441563     A.U. after   14 cycles
 SCF Done:  E(RM062X) =  -777.991457952     A.U. after   14 cycles
 SCF Done:  E(RM062X) =  -777.991465527     A.U. after   14 cycles
 SCF Done:  E(RM062X) =  -777.991467235     A.U. after   12 cycles
 SCF Done:  E(RM062X) =  -777.991467596     A.U. after   11 cycles
 SCF Done:  E(RM062X) =  -777.991467775     A.U. after   11 cycles
 SCF Done:  E(RM062X) =  -777.991467804     A.U. after   10 cycles
 Optimization completed.
    -- Stationary point found.
 Normal termination of Gaussian 09 at Tue Feb  5 11:44:06 2019.
 Gaussian 09:  ES64L-G09RevE.01 30-Nov-2015

 ----------------------------------------------------------------------
 # M062X/Gen 6D SCF=Tight INT(grid=ultrafine) OPT IOP(2/17=4) SCRF=(SMD
 ,Solvent=h2o) Freq=Noraman maxdisk=2147483648 geom=check guess=read IO
 P(2/17=4)
 ----------------------------------------------------------------------

 ---------------------------------
 3Nitro_a1.M062X_6-31pGd_opt_water
 ---------------------------------
 Structure from the checkpoint file:  "3Nitro_a1.M062X_6-31pGd_opt_water.chk"
 Charge = -1 Multiplicity = 1

 SCF Done:  E(RM062X) =  -777.991467804     A.U. after    1 cycles
 Optimization completed.
    -- Stationary point found.
 Normal termination of Gaussian 09 at Tue Feb  5 11:45:00 2019.

 ----------------------------------------------------------------------
 #N Geom=AllCheck Guess=TCheck SCRF=Check Test GenChk RM062X/ChkBas Fre
 q
 ----------------------------------------------------------------------

 Structure from the checkpoint file:  "3Nitro_a1.M062X_6-31pGd_opt_water.chk"
 ---------------------------------
 3Nitro_a1.M062X_6-31pGd_opt_water
 ---------------------------------
 Charge = -1 Multiplicity = 1

                         Standard orientation:
 ---------------------------------------------------------------------
 Center     Atomic      Atomic             Coordinates (Angstroms)
 Number     Number       Type             X           Y           Z
 ---------------------------------------------------------------------
      1          6           0        6.335222   -0.696388   -0.294923
      2          6           0        5.182497    0.040413    0.380467
      3          6           0        3.837343   -0.393127   -0.184042
      4          7           0        2.749775    0.331318    0.462670
      5          6           0        1.445429    0.154588    0.013210
      6          8           0        1.172243   -0.914870   -0.608107
      7          7           0        0.627856    1.178569    0.297043
      8          6           0       -0.730600    1.054795    0.103035
      9          6           0       -1.466487   -0.150787    0.158227
     10          6           0       -1.479501    2.241840   -0.087008
     11          6           0       -2.861719    2.239185   -0.231966
     12          6           0       -3.584659    1.048140   -0.189541
     13          6           0       -2.848245   -0.114779    0.011095
     14          1           0        7.299955   -0.383265    0.115833
     15          1           0        6.348597   -0.499593   -1.372817
     16          1           0        5.300744    1.123091    0.241713
     17          1           0        5.198370   -0.147858    1.460983
     18          1           0        3.698436   -1.466097   -0.017966
     19          1           0        3.826145   -0.231480   -1.273037
     20          1           0        2.964383    1.298543    0.682520
     21          1           0       -0.966348   -1.092754    0.332744
     22          1           0       -0.937888    3.183513   -0.118689
     23          1           0       -3.386892    3.177478   -0.383579
     24          7           0       -3.575453   -1.385688    0.079502
     25          1           0       -4.660395    1.023843   -0.308791
     26          8           0       -2.938363   -2.425251    0.183749
     27          8           0       -4.798904   -1.362254    0.030310
     28          1           0        6.244160   -1.779113   -0.152369
 ---------------------------------------------------------------------

 SCF Done:  E(RM062X) =  -777.991467804     A.U. after    1 cycles

 The electronic state is 1-A.
 Alpha  occ. eigenvalues --  -19.69618 -19.69577 -19.59441 -15.02574 -14.75502
 Alpha  occ. eigenvalues --  -14.71165 -10.64755 -10.60935 -10.58876 -10.56306
 Alpha  occ. eigenvalues --  -10.56049 -10.55823 -10.55685 -10.55112 -10.53573
 Alpha  occ. eigenvalues --  -10.52683  -1.37966  -1.19111  -1.13732  -1.00880
 Alpha  occ. eigenvalues --   -0.99774  -0.96145  -0.89365  -0.86929  -0.83232
 Alpha  occ. eigenvalues --   -0.78821  -0.75977  -0.70240  -0.68290  -0.66902
 Alpha  occ. eigenvalues --   -0.65080  -0.63410  -0.61915  -0.60958  -0.56950
 Alpha  occ. eigenvalues --   -0.56456  -0.54383  -0.53471  -0.51707  -0.50448
 Alpha  occ. eigenvalues --   -0.49661  -0.48255  -0.45868  -0.45223  -0.43853
 Alpha  occ. eigenvalues --   -0.43519  -0.42215  -0.41345  -0.40450  -0.39628
 Alpha  occ. eigenvalues --   -0.39248  -0.38998  -0.38652  -0.36658  -0.34258
 Alpha  occ. eigenvalues --   -0.32006  -0.30635  -0.30002  -0.24119
 Alpha virt. eigenvalues --   -0.06089   0.01895   0.02340   0.03489   0.03880
 Alpha virt. eigenvalues --    0.04150   0.04336   0.04731   0.05002   0.05819
 Alpha virt. eigenvalues --    0.06436   0.07089   0.07197   0.08009   0.08593

 Mulliken charges:
               1
     1  C   -0.746919
     2  C   -0.342946
     3  C   -0.369311
     4  N   -0.619107
     5  C    0.790143
     6  O   -0.845092
     7  N   -0.647492
     8  C    0.392337
     9  C    0.166290
    10  C   -0.548532
    11  C   -0.314264
    12  C   -0.096622
    13  C   -0.356681
    14  H    0.219989
    15  H    0.219751
    16  H    0.222232
    17  H    0.227174
    18  H    0.222910
    19  H    0.207651
    20  H    0.430471
    21  H    0.271177
    22  H    0.241480
    23  H    0.251974
    24  N   -0.208873
    25  H    0.270395
    26  O   -0.125448
    27  O   -0.131876
    28  H    0.219188
 Sum of Mulliken charges =  -1.00000

 Dipole moment (field-independent basis, Debye):
    X=              3.8308    Y=              5.6155    Z=              0.3962  Tot=              6.8092
 Quadrupole moment (field-independent basis, Debye-Ang):
   XX=           -113.0205   YY=           -108.3083   ZZ=           -102.1228
   XY=            -14.6464   XZ=              2.1940   YZ=             -3.7156

  Exact polarizability: 320.957 -10.105 259.264  11.546  -0.323 147.957
 Approx polarizability: 248.779  -8.876 215.269  10.696  -0.478 128.676

                      1                      2                      3
                      A                      A                      A
 Frequencies --     28.3364                32.1091                38.8784
 Red. masses --      9.0426                 3.6534                 4.2991
 Frc consts  --      0.0043                 0.0022                 0.0038
 IR Inten    --      2.3020                 7.1909                 2.3703

                      4                      5                      6
                      A                      A                      A
 Frequencies --     55.5656                73.0524                93.6206
 Red. masses --      5.1212                 2.2434                 4.4365
 Frc consts  --      0.0093                 0.0071                 0.0229
 IR Inten    --      6.4109                 8.5854                 2.0366

                      7                      8                      9
                      A                      A                      A
 Frequencies --    137.2680               166.0777               173.1749
 Red. masses --      4.9687                 2.8585                 5.0549
 Frc consts  --      0.0552                 0.0465                 0.0893
 IR Inten    --      2.4116                12.7656                 7.3303

                     10                     11                     12
                      A                      A                      A
 Frequencies --    236.5733               249.6453               252.5954
 Red. masses --      1.1523                 6.2882                 5.3899
 Frc consts  --      0.0380                 0.2309                 0.2026
 IR Inten    --      0.4591                 8.3958                13.3203

                     13                     14                     15
                      A                      A                      A
 Frequencies --    272.0924               341.3032               384.8189
 Red. masses --      4.1344                 4.3763                 7.9990
 Frc consts  --      0.1803                 0.3004                 0.6979
 IR Inten    --      3.4645                29.0844                10.1081

                     16                     17                     18
                      A                      A                      A
 Frequencies --    420.4769               433.7796               447.5574
 Red. masses --      7.1357                 3.1844                 3.6506
 Frc consts  --      0.7433                 0.3530                 0.4308
 IR Inten    --      6.8371                 2.3796                24.5369

                     19                     20                     21
                      A                      A                      A
 Frequencies --    544.2534               555.9958               566.1286
 Red. masses --      2.4686                 3.8200                 3.3687
 Frc consts  --      0.4308                 0.6958                 0.6361
 IR Inten    --    100.9821                47.0795                73.6716

                     22                     23                     24
                      A                      A                      A
 Frequencies --    628.9823               676.5509               700.7703
 Red. masses --      3.9964                 2.2025                 6.0120
 Frc consts  --      0.9315                 0.5940                 1.7395
 IR Inten    --     80.7295                49.4296                42.3857

                     25                     26                     27
                      A                      A                      A
 Frequencies --    755.6729               760.5749               778.2267
 Red. masses --      2.0525                 1.4232                 4.0074
 Frc consts  --      0.6906                 0.4851                 1.4300
 IR Inten    --     33.6628                39.3964               136.6483

                     28                     29                     30
                      A                      A                      A
 Frequencies --    797.4105               808.2989               846.6833
 Red. masses --      6.5058                 1.9539                 9.2245
 Frc consts  --      2.4373                 0.7522                 3.8962
 IR Inten    --     51.3288                15.2976                93.7218

                     31                     32                     33
                      A                      A                      A
 Frequencies --    887.8992               905.3874               927.9286
 Red. masses --      1.9221                 1.1632                 1.4646
 Frc consts  --      0.8928                 0.5618                 0.7430
 IR Inten    --     51.8085                19.2926                 1.1190

                     34                     35                     36
                      A                      A                      A
 Frequencies --    931.5949               971.9337              1004.4840
 Red. masses --      1.6307                 4.2628                 5.7084
 Frc consts  --      0.8338                 2.3726                 3.3935
 IR Inten    --      1.8988                 7.9393                77.2914

                     37                     38                     39
                      A                      A                      A
 Frequencies --   1013.7853              1029.0774              1078.9743
 Red. masses --      1.3273                 4.6993                 2.4344
 Frc consts  --      0.8037                 2.9321                 1.6698
 IR Inten    --      0.2284                36.7075                15.6883

                     40                     41                     42
                      A                      A                      A
 Frequencies --   1113.2004              1120.2332              1141.3137
 Red. masses --      1.5964                 1.7299                 2.1873
 Frc consts  --      1.1656                 1.2790                 1.6787
 IR Inten    --     89.1052                10.3326                62.3758

                     43                     44                     45
                      A                      A                      A
 Frequencies --   1166.3900              1179.4857              1186.8758
 Red. masses --      1.8240                 1.1532                 2.8620
 Frc consts  --      1.4621                 0.9452                 2.3754
 IR Inten    --      6.8373                 1.4355               146.5436

                     46                     47                     48
                      A                      A                      A
 Frequencies --   1260.6126              1280.4738              1300.6704
 Red. masses --      1.5959                 1.5444                 1.4286
 Frc consts  --      1.4942                 1.4919                 1.4239
 IR Inten    --     48.4033               147.0073               235.2401

                     49                     50                     51
                      A                      A                      A
 Frequencies --   1321.8110              1331.7625              1348.1339
 Red. masses --      1.1413                 2.0326                 2.6583
 Frc consts  --      1.1748                 2.1240                 2.8465
 IR Inten    --     17.3042               152.9681                47.0611

                     52                     53                     54
                      A                      A                      A
 Frequencies --   1393.3397              1420.8844              1435.5972
 Red. masses --      2.5871                 1.3300                 3.4506
 Frc consts  --      2.9593                 1.5820                 4.1900
 IR Inten    --    968.9296               107.7745               846.6711

                     55                     56                     57
                      A                      A                      A
 Frequencies --   1442.9667              1475.5180              1484.9662
 Red. masses --      4.0279                 3.3018                 2.1621
 Frc consts  --      4.9413                 4.2353                 2.8091
 IR Inten    --    565.2474               271.0162               507.2352

                     58                     59                     60
                      A                      A                      A
 Frequencies --   1491.7694              1502.2635              1513.7059
 Red. masses --      1.1287                 1.0402                 1.1188
 Frc consts  --      1.4799                 1.3831                 1.5104
 IR Inten    --     75.3545                11.2710                88.0223

                     61                     62                     63
                      A                      A                      A
 Frequencies --   1521.0092              1533.2457              1561.8147
 Red. masses --      2.9474                 1.1171                 4.2536
 Frc consts  --      4.0175                 1.5472                 6.1131
 IR Inten    --    487.9350                61.2585              1697.4261

                     64                     65                     66
                      A                      A                      A
 Frequencies --   1598.7869              1628.8958              1690.1577
 Red. masses --      9.2616                 6.6301                 7.7790
 Frc consts  --     13.9481                10.3646                13.0928
 IR Inten    --    733.0918                58.3978                42.5597

                     67                     68                     69
                      A                      A                      A
 Frequencies --   3034.7770              3067.3043              3074.1809
 Red. masses --      1.0707                 1.0609                 1.0364
 Frc consts  --      5.8102                 5.8810                 5.7709
 IR Inten    --    102.7941                55.1011                43.1807

                     70                     71                     72
                      A                      A                      A
 Frequencies --   3102.7841              3123.5581              3142.8973
 Red. masses --      1.0984                 1.0964                 1.1035
 Frc consts  --      6.2301                 6.3028                 6.4224
 IR Inten    --     17.8093                63.9963               101.1341

                     73                     74                     75
                      A                      A                      A
 Frequencies --   3152.0614              3224.3815              3240.7887
 Red. masses --      1.1021                 1.0891                 1.0946
 Frc consts  --      6.4516                 6.6712                 6.7731
 IR Inten    --     53.1899                12.4667                17.3699

                     76                     77                     78
                      A                      A                      A
 Frequencies --   3281.7001              3298.6296              3595.7359
 Red. masses --      1.0942                 1.0913                 1.0768
 Frc consts  --      6.9427                 6.9963                 8.2028
 IR Inten    --      6.7948                13.7150                55.8341

 - Thermochemistry -
 -------------------
 Temperature   298.150 Kelvin.  Pressure   1.00000 Atm.
 Atom     1 has atomic number  6 and mass  12.00000

 Molecular mass:   222.08787 amu.
 Principal axes and moments of inertia in atomic units:
                           1         2         3
     Eigenvalues --  1405.444928974.45506**********
           X            0.99989  -0.01460  -0.00018
           Y            0.01460   0.99989  -0.00032
           Z            0.00018   0.00031   1.00000
 This molecule is an asymmetric top.
 Rotational symmetry number  1.
 Warning -- assumption of classical behavior for rotation
           may cause significant error
 Rotational temperatures (Kelvin)      0.06163     0.00965     0.00847
 Rotational constants (GHZ):           1.28411     0.20110     0.17657
 Zero-point vibrational energy     578946.0 (Joules/Mol)
                                  138.37143 (Kcal/Mol)
 Warning -- explicit consideration of  21 degrees of freedom as
           vibrations may cause significant error
 Vibrational temperatures:     40.77    46.20    55.94    79.95   105.11
          (Kelvin)            134.70   197.50   238.95   249.16   340.38
                              359.18   363.43   391.48   491.06   553.67
                              604.97   624.11   643.93   783.06   799.95
                              814.53   904.96   973.40  1008.25  1087.24
                             1094.30  1119.69  1147.29  1162.96  1218.19
                             1277.49  1302.65  1335.08  1340.36  1398.39
                             1445.23  1458.61  1480.61  1552.40  1601.65
                             1611.76  1642.09  1678.17  1697.01  1707.65
                             1813.74  1842.31  1871.37  1901.79  1916.11
                             1939.66  2004.70  2044.33  2065.50  2076.10
                             2122.94  2136.53  2146.32  2161.42  2177.88
                             2188.39  2206.00  2247.10  2300.29  2343.61
                             2431.76  4366.36  4413.16  4423.06  4464.21
                             4494.10  4521.92  4535.11  4639.16  4662.77
                             4721.63  4745.99  5173.46

 Zero-point correction=                           0.220509 (Hartree/Particle)
 Thermal correction to Energy=                    0.235725
 Thermal correction to Enthalpy=                  0.236669
 Thermal correction to Gibbs Free Energy=         0.175175
 Sum of electronic and zero-point Energies=           -777.770959
 Sum of electronic and thermal Energies=              -777.755743
 Sum of electronic and thermal Enthalpies=            -777.754799
 Sum of electronic and thermal Free Energies=         -777.816292

                     E (Thermal)             CV                S
                      KCal/Mol        Cal/Mol-Kelvin    Cal/Mol-Kelvin
 Total                  147.920             54.995            129.425
 Electronic               0.000              0.000              0.000
 Translational            0.889              2.981             42.096
 Rotational               0.889              2.981             33.222
 Vibrational            146.142             49.034             54.107
 Vibration     1          0.593              1.984              5.943
 Vibration     2          0.594              1.983              5.695
 Vibration     3          0.594              1.981              5.315
 Vibration     4          0.596              1.975              4.609
 Vibration     5          0.599              1.967              4.069
 Vibration     6          0.603              1.954              3.583
 Vibration     7          0.614              1.916              2.842
 Vibration     8          0.624              1.884              2.479
 Vibration     9          0.627              1.875              2.401
 Vibration    10          0.655              1.785              1.829
 Vibration    11          0.662              1.763              1.733
 Vibration    12          0.664              1.758              1.712
 Vibration    13          0.675              1.725              1.583
 Vibration    14          0.721              1.593              1.206
 Vibration    15          0.754              1.503              1.020
 Vibration    16          0.783              1.426              0.890
 Vibration    17          0.795              1.397              0.846
 Vibration    18          0.807              1.366              0.803
 Vibration    19          0.899              1.152              0.556
 Vibration    20          0.911              1.127              0.532
 Vibration    21          0.922              1.105              0.512

 Optimization completed.
    -- Stationary point found.
 Normal termination of Gaussian 09 at Tue Feb  5 12:22:17 2019.
