 Gaussian 09, Revision E.01,

 ----------------------------------------------------------------------
 # M062X/Gen 6D SCF=Tight INT(grid=ultrafine) OPT IOP(2/17=4) SCRF=(SMD
 ,Solvent=n-Pentadecane) maxdisk=2147483648
 ----------------------------------------------------------------------

 ------------------------------------
 3Nitro.M062X_6-31pGd_opt_Pentadecane
 ------------------------------------
 Symbolic Z-matrix:
 Charge =  0 Multiplicity = 1

 SCF Done:  E(RM062X) =  -778.416817735     A.U. after   17 cycles
 SCF Done:  E(RM062X) =  -778.456203158     A.U. after   17 cycles
 SCF Done:  E(RM062X) =  -778.461275891     A.U. after   17 cycles
 SCF Done:  E(RM062X) =  -778.463116058     A.U. after   17 cycles
 SCF Done:  E(RM062X) =  -778.460197072     A.U. after   17 cycles
 SCF Done:  E(RM062X) =  -778.463583274     A.U. after   13 cycles
 SCF Done:  E(RM062X) =  -778.464343458     A.U. after   17 cycles
 SCF Done:  E(RM062X) =  -778.464747076     A.U. after   16 cycles
 SCF Done:  E(RM062X) =  -778.464959835     A.U. after   16 cycles
 SCF Done:  E(RM062X) =  -778.464972638     A.U. after   14 cycles
 SCF Done:  E(RM062X) =  -778.465179997     A.U. after   14 cycles
 SCF Done:  E(RM062X) =  -778.465258110     A.U. after   14 cycles
 SCF Done:  E(RM062X) =  -778.465280127     A.U. after   14 cycles
 SCF Done:  E(RM062X) =  -778.465290561     A.U. after   14 cycles
 SCF Done:  E(RM062X) =  -778.465302305     A.U. after   13 cycles
 SCF Done:  E(RM062X) =  -778.465309916     A.U. after   14 cycles
 SCF Done:  E(RM062X) =  -778.465316239     A.U. after   12 cycles
 SCF Done:  E(RM062X) =  -778.465317695     A.U. after   11 cycles
 SCF Done:  E(RM062X) =  -778.465317844     A.U. after   10 cycles
 Optimization completed.
    -- Stationary point found.
 Normal termination of Gaussian 09 at Fri Feb 22 14:50:56 2019.
 Gaussian 09:  ES64L-G09RevE.01 30-Nov-2015

 ----------------------------------------------------------------------
 # M062X/Gen 6D SCF=Tight INT(grid=ultrafine) SCRF=(SMD,Solvent=n-Penta
 decane) Freq=Noraman maxdisk=2147483648 geom=check guess=read IOP(2/17
 =4)
 ----------------------------------------------------------------------

 ------------------------------------
 3Nitro.M062X_6-31pGd_opt_Pentadecane
 ------------------------------------
 Structure from the checkpoint file:  "3Nitro.M062X_6-31pGd_opt_Pentadecane.chk"
 Charge =  0 Multiplicity = 1

                         Standard orientation:
 ---------------------------------------------------------------------
 Center     Atomic      Atomic             Coordinates (Angstroms)
 Number     Number       Type             X           Y           Z
 ---------------------------------------------------------------------
      1          6           0        6.379492   -0.808217   -0.051715
      2          6           0        5.233119    0.198322   -0.085763
      3          6           0        3.884861   -0.483914    0.106269
      4          7           0        2.810081    0.499441    0.073210
      5          6           0        1.508837    0.087038   -0.008759
      6          8           0        1.189807   -1.079083   -0.186089
      7          7           0        0.590592    1.124250    0.100622
      8          6           0       -0.802968    1.035364    0.037432
      9          6           0       -1.501524   -0.177711    0.049145
     10          6           0       -1.523622    2.239474   -0.018356
     11          6           0       -2.911683    2.243905   -0.062182
     12          6           0       -3.625185    1.048413   -0.054448
     13          6           0       -2.888882   -0.126217    0.001487
     14          1           0        7.344145   -0.311622   -0.192018
     15          1           0        6.268713   -1.555738   -0.844773
     16          1           0        5.228323    0.734778   -1.042287
     17          1           0        5.379111    0.948700    0.703587
     18          1           0        3.869921   -1.041772    1.053173
     19          1           0        3.702123   -1.203666   -0.696349
     20          1           0        3.006349    1.402834    0.487668
     21          1           0       -0.984255   -1.125492    0.086778
     22          1           0       -0.982726    3.183040   -0.028531
     23          1           0       -3.442946    3.189183   -0.105552
     24          7           0       -3.622645   -1.407408    0.015432
     25          1           0       -4.706880    1.022365   -0.090860
     26          8           0       -2.976179   -2.436949    0.081923
     27          8           0       -4.840621   -1.361883   -0.038852
     28          1           0        6.411476   -1.338550    0.906376
     29          1           0        0.961740    2.066549    0.103425
 ---------------------------------------------------------------------

 SCF Done:  E(RM062X) =  -778.465317844     A.U. after    1 cycles

 The electronic state is 1-A.
 Alpha  occ. eigenvalues --  -19.68471 -19.68388 -19.62054 -15.01573 -14.81378
 Alpha  occ. eigenvalues --  -14.79306 -10.69458 -10.62597 -10.61802 -10.58362
 Alpha  occ. eigenvalues --  -10.57893 -10.57723 -10.57466 -10.57320 -10.55382
 Alpha  occ. eigenvalues --  -10.54034  -1.37121  -1.18746  -1.18435  -1.07199
 Alpha  occ. eigenvalues --   -1.03861  -0.98923  -0.90870  -0.88985  -0.86205
 Alpha  occ. eigenvalues --   -0.80218  -0.78520  -0.73124  -0.69598  -0.69155
 Alpha  occ. eigenvalues --   -0.67905  -0.65595  -0.63795  -0.62612  -0.60256
 Alpha  occ. eigenvalues --   -0.58630  -0.58327  -0.56291  -0.53956  -0.53641
 Alpha  occ. eigenvalues --   -0.52890  -0.51975  -0.50376  -0.48383  -0.47057
 Alpha  occ. eigenvalues --   -0.45875  -0.45531  -0.44364  -0.43018  -0.41075
 Alpha  occ. eigenvalues --   -0.40425  -0.39219  -0.39096  -0.38079  -0.38061
 Alpha  occ. eigenvalues --   -0.35510  -0.33463  -0.32873  -0.28581
 Alpha virt. eigenvalues --   -0.05404  -0.00096   0.00694   0.02277   0.03045
 Alpha virt. eigenvalues --    0.03250   0.03395   0.03870   0.04151   0.05000
 Alpha virt. eigenvalues --    0.05434   0.06099   0.06484   0.07666   0.07710

 Mulliken charges:
               1
     1  C   -0.739166
     2  C   -0.323822
     3  C   -0.164466
     4  N   -0.613551
     5  C    0.779044
     6  O   -0.592022
     7  N   -0.684080
     8  C    0.268652
     9  C    0.609766
    10  C   -1.016087
    11  C   -0.378236
    12  C    0.136108
    13  C   -0.348118
    14  H    0.217973
    15  H    0.220105
    16  H    0.229139
    17  H    0.209967
    18  H    0.222458
    19  H    0.245352
    20  H    0.412597
    21  H    0.314890
    22  H    0.221458
    23  H    0.237211
    24  N   -0.305869
    25  H    0.265844
    26  O   -0.031575
    27  O   -0.051317
    28  H    0.218149
    29  H    0.439595
 Sum of Mulliken charges =  -0.00000

 Dipole moment (field-independent basis, Debye):
    X=              6.0886    Y=              8.2771    Z=              0.8940  Tot=             10.3141
 Quadrupole moment (field-independent basis, Debye-Ang):
   XX=            -93.0350   YY=            -93.2791   ZZ=            -96.6875
   XY=            -10.6693   XZ=              2.6456   YZ=              0.7434

  Exact polarizability: 235.849  -3.578 180.392   3.210  -0.828  98.821
 Approx polarizability: 225.759  -4.972 205.955   4.194  -0.346 115.458

                      1                      2                      3
                      A                      A                      A
 Frequencies --     26.3508                33.1141                44.9595
 Red. masses --      4.9660                 3.3767                 8.6330
 Frc consts  --      0.0020                 0.0022                 0.0103
 IR Inten    --      0.0789                 4.6129                 0.2156

                      4                      5                      6
                      A                      A                      A
 Frequencies --     59.9345                66.2990                83.6185
 Red. masses --      3.6142                 3.0616                 3.3037
 Frc consts  --      0.0076                 0.0079                 0.0136
 IR Inten    --      4.2580                 5.3410                 0.4020

                      7                      8                      9
                      A                      A                      A
 Frequencies --    133.0348               170.8569               185.3943
 Red. masses --      5.6119                 5.0568                 2.9208
 Frc consts  --      0.0585                 0.0870                 0.0591
 IR Inten    --      4.0337                 1.4543                 0.7655

                     10                     11                     12
                      A                      A                      A
 Frequencies --    240.9442               243.8207               248.3938
 Red. masses --      1.3115                 3.5192                 2.9282
 Frc consts  --      0.0449                 0.1233                 0.1064
 IR Inten    --      0.1863                 3.5728                 6.7697

                     13                     14                     15
                      A                      A                      A
 Frequencies --    258.0621               328.7432               350.8237
 Red. masses --      6.5132                 1.7109                 2.3352
 Frc consts  --      0.2556                 0.1089                 0.1693
 IR Inten    --      3.3522                92.2965                18.3089

                     16                     17                     18
                      A                      A                      A
 Frequencies --    372.7020               410.5163               432.1806
 Red. masses --      6.9159                 7.7221                 3.3552
 Frc consts  --      0.5660                 0.7667                 0.3692
 IR Inten    --      2.4135                 0.7147                 2.7881

                     19                     20                     21
                      A                      A                      A
 Frequencies --    461.2756               515.6364               546.5825
 Red. masses --      3.7386                 1.2252                 5.3540
 Frc consts  --      0.4687                 0.1919                 0.9424
 IR Inten    --      5.8919               164.3721                 2.8963

                     22                     23                     24
                      A                      A                      A
 Frequencies --    554.0619               626.5739               674.4411
 Red. masses --      6.0972                 5.4229                 2.5008
 Frc consts  --      1.1028                 1.2544                 0.6702
 IR Inten    --      5.0482                 8.0035                21.3899

                     25                     26                     27
                      A                      A                      A
 Frequencies --    702.9549               754.8735               762.8089
 Red. masses --      7.1385                 1.7663                 3.6659
 Frc consts  --      2.0783                 0.5930                 1.2568
 IR Inten    --     21.0356                11.5660                53.9068

                     28                     29                     30
                      A                      A                      A
 Frequencies --    767.4342               786.8709               818.5047
 Red. masses --      2.1772                 5.5196                 1.7493
 Frc consts  --      0.7555                 2.0135                 0.6905
 IR Inten    --      7.7718                 4.0170                28.8563

                     31                     32                     33
                      A                      A                      A
 Frequencies --    855.6841               900.7700               926.6018
 Red. masses --      9.6426                 1.1767                 1.4590
 Frc consts  --      4.1598                 0.5625                 0.7381
 IR Inten    --     43.1517                 3.3350                 7.2980

                     34                     35                     36
                      A                      A                      A
 Frequencies --    931.2652               948.2314               981.7854
 Red. masses --      1.7035                 1.3756                 4.3051
 Frc consts  --      0.8704                 0.7287                 2.4449
 IR Inten    --      6.3450                16.0085                 9.6773

                     37                     38                     39
                      A                      A                      A
 Frequencies --   1010.1086              1016.7459              1045.9127
 Red. masses --      1.3183                 6.1308                 4.1612
 Frc consts  --      0.7925                 3.7341                 2.6820
 IR Inten    --      0.1600                 1.8552                 3.8516

                     40                     41                     42
                      A                      A                      A
 Frequencies --   1081.8909              1127.3281              1138.8122
 Red. masses --      2.4991                 1.6164                 1.8912
 Frc consts  --      1.7235                 1.2103                 1.4451
 IR Inten    --      3.9817                44.9196                 3.1097

                     43                     44                     45
                      A                      A                      A
 Frequencies --   1156.5629              1168.1205              1181.3719
 Red. masses --      2.1300                 2.4516                 1.8551
 Frc consts  --      1.6787                 1.9710                 1.5254
 IR Inten    --      2.6093                 3.0734                 3.7821

                     46                     47                     48
                      A                      A                      A
 Frequencies --   1207.8780              1247.3718              1279.9826
 Red. masses --      1.2213                 1.6249                 1.2802
 Frc consts  --      1.0498                 1.4896                 1.2358
 IR Inten    --     10.2242               337.7871               109.9084

                     49                     50                     51
                      A                      A                      A
 Frequencies --   1303.2761              1314.9888              1325.7056
 Red. masses --      2.4970                 1.4701                 1.1526
 Frc consts  --      2.4989                 1.4978                 1.1935
 IR Inten    --     18.0759                33.7131                35.1085

                     52                     53                     54
                      A                      A                      A
 Frequencies --   1348.8447              1379.0747              1424.9915
 Red. masses --      1.3591                 4.7459                 1.5167
 Frc consts  --      1.4569                 5.3180                 1.8146
 IR Inten    --     11.8175               176.8876                 1.4227

                     55                     56                     57
                      A                      A                      A
 Frequencies --   1436.8517              1475.4784              1487.5020
 Red. masses --      1.3363                13.9407                 2.7272
 Frc consts  --      1.6254                17.8813                 3.5553
 IR Inten    --      2.3276               345.4272                63.9028

                     58                     59                     60
                      A                      A                      A
 Frequencies --   1509.1420              1520.0279              1522.7420
 Red. masses --      1.0605                 1.0426                 1.0738
 Frc consts  --      1.4231                 1.4193                 1.4670
 IR Inten    --      9.2420                14.9673                 6.0306

                     61                     62                     63
                      A                      A                      A
 Frequencies --   1535.2026              1540.0767              1556.4790
 Red. masses --      1.1152                 2.1121                 2.2166
 Frc consts  --      1.5486                 2.9516                 3.1640
 IR Inten    --      9.1388               367.0369               172.5307

                     64                     65                     66
                      A                      A                      A
 Frequencies --   1593.1613              1671.9705              1681.8922
 Red. masses --      2.1798                 5.6701                 7.3202
 Frc consts  --      3.2598                 9.3389                12.2002
 IR Inten    --    822.5102               272.4686               279.6590

                     67                     68                     69
                      A                      A                      A
 Frequencies --   1725.1279              1806.6307              3057.8408
 Red. masses --      9.9584                 8.1119                 1.0689
 Frc consts  --     17.4616                15.5995                 5.8886
 IR Inten    --     67.8796               365.7720                26.7537

                     70                     71                     72
                      A                      A                      A
 Frequencies --   3062.7280              3079.7211              3106.0417
 Red. masses --      1.0648                 1.0365                 1.0981
 Frc consts  --      5.8848                 5.7923                 6.2420
 IR Inten    --     44.9748                33.8427                19.2031

                     73                     74                     75
                      A                      A                      A
 Frequencies --   3144.0261              3151.3423              3158.8150
 Red. masses --      1.0972                 1.1021                 1.1020
 Frc consts  --      6.3902                 6.4488                 6.4787
 IR Inten    --      1.3963                61.7415                33.4291

                     76                     77                     78
                      A                      A                      A
 Frequencies --   3211.0888              3244.9490              3280.6285
 Red. masses --      1.0907                 1.0933                 1.0944
 Frc consts  --      6.6261                 6.7828                 6.9395
 IR Inten    --      8.6533                 6.7707                 5.9502

                     79                     80                     81
                      A                      A                      A
 Frequencies --   3309.8536              3622.4153              3631.3079
 Red. masses --      1.0922                 1.0777                 1.0776
 Frc consts  --      7.0494                 8.3319                 8.3719
 IR Inten    --     37.4385                 8.4591                88.5359

 - Thermochemistry -
 -------------------
 Temperature   298.150 Kelvin.  Pressure   1.00000 Atm.
 Atom     1 has atomic number  6 and mass  12.00000

 Molecular mass:   223.09569 amu.
 Principal axes and moments of inertia in atomic units:
                           1         2         3
     Eigenvalues --  1406.434649125.99574**********
           X            0.99990  -0.01418   0.00050
           Y            0.01418   0.99990   0.00020
           Z           -0.00050  -0.00019   1.00000
 This molecule is an asymmetric top.
 Rotational symmetry number  1.
 Warning -- assumption of classical behavior for rotation
           may cause significant error
 Rotational temperatures (Kelvin)      0.06158     0.00949     0.00826
 Rotational constants (GHZ):           1.28320     0.19776     0.17209
 Zero-point vibrational energy     616603.9 (Joules/Mol)
                                  147.37186 (Kcal/Mol)
 Warning -- explicit consideration of  22 degrees of freedom as
           vibrations may cause significant error
 Vibrational temperatures:     37.91    47.64    64.69    86.23    95.39
          (Kelvin)            120.31   191.41   245.82   266.74   346.66
                              350.80   357.38   371.29   472.99   504.76
                              536.23   590.64   621.81   663.67   741.88
                              786.41   797.17   901.50   970.37  1011.39
                             1086.09  1097.51  1104.17  1132.13  1177.64
                             1231.14  1296.01  1333.17  1339.88  1364.29
                             1412.57  1453.32  1462.87  1504.83  1556.60
                             1621.97  1638.49  1664.03  1680.66  1699.73
                             1737.86  1794.69  1841.61  1875.12  1891.97
                             1907.39  1940.68  1984.18  2050.24  2067.31
                             2122.88  2140.18  2171.32  2186.98  2190.88
                             2208.81  2215.82  2239.42  2292.20  2405.59
                             2419.86  2482.07  2599.34  4399.55  4406.58
                             4431.03  4468.90  4523.55  4534.07  4544.82
                             4620.03  4668.75  4720.09  4762.14  5211.84
                             5224.64

 Zero-point correction=                           0.234852 (Hartree/Particle)
 Thermal correction to Energy=                    0.250485
 Thermal correction to Enthalpy=                  0.251430
 Thermal correction to Gibbs Free Energy=         0.189249
 Sum of electronic and zero-point Energies=           -778.230466
 Sum of electronic and thermal Energies=              -778.214832
 Sum of electronic and thermal Enthalpies=            -778.213888
 Sum of electronic and thermal Free Energies=         -778.276069

                     E (Thermal)             CV                S
                      KCal/Mol        Cal/Mol-Kelvin    Cal/Mol-Kelvin
 Total                  157.182             56.553            130.870
 Electronic               0.000              0.000              0.000
 Translational            0.889              2.981             42.110
 Rotational               0.889              2.981             33.265
 Vibrational            155.405             50.592             55.495
 Vibration     1          0.593              1.985              6.087
 Vibration     2          0.594              1.983              5.634
 Vibration     3          0.595              1.979              5.028
 Vibration     4          0.597              1.973              4.459
 Vibration     5          0.598              1.970              4.260
 Vibration     6          0.601              1.960              3.804
 Vibration     7          0.613              1.920              2.902
 Vibration     8          0.626              1.878              2.426
 Vibration     9          0.631              1.860              2.273
 Vibration    10          0.658              1.778              1.796
 Vibration    11          0.659              1.773              1.775
 Vibration    12          0.662              1.765              1.742
 Vibration    13          0.667              1.749              1.675
 Vibration    14          0.712              1.618              1.266
 Vibration    15          0.728              1.574              1.162
 Vibration    16          0.744              1.528              1.069
 Vibration    17          0.775              1.447              0.925
 Vibration    18          0.793              1.400              0.852
 Vibration    19          0.819              1.336              0.762
 Vibration    20          0.871              1.215              0.620
 Vibration    21          0.902              1.147              0.551
 Vibration    22          0.909              1.131              0.536

 Normal termination of Gaussian 09 at Fri Feb 22 15:25:34 2019.
