 Gaussian 09, Revision E.01,

 ----------------------------------------------------------------------
 # M062X/Gen 6D SCF=Tight INT(grid=ultrafine) OPT IOP(2/17=4) SCRF=(SMD
 ,Solvent=n-Pentadecane) maxdisk=2684354560
 ----------------------------------------------------------------------

 ----------------------------------------
 3Nitro_EtO.M062X_6-31pGd_opt_Pentadecane
 ----------------------------------------
 Symbolic Z-matrix:
 Charge = -1 Multiplicity = 1

 SCF Done:  E(RM062X) =  -1046.29428630     A.U. after   16 cycles
 SCF Done:  E(RM062X) =  -1046.29563378     A.U. after   15 cycles
 SCF Done:  E(RM062X) =  -1046.29512777     A.U. after   17 cycles
 SCF Done:  E(RM062X) =  -1046.29346036     A.U. after   17 cycles
 SCF Done:  E(RM062X) =  -1046.29578869     A.U. after   11 cycles
 SCF Done:  E(RM062X) =  -1046.29567600     A.U. after   15 cycles
 SCF Done:  E(RM062X) =  -1046.29600909     A.U. after   15 cycles
 SCF Done:  E(RM062X) =  -1046.29604726     A.U. after   13 cycles
 SCF Done:  E(RM062X) =  -1046.29606165     A.U. after   12 cycles
 SCF Done:  E(RM062X) =  -1046.29607226     A.U. after   11 cycles
 SCF Done:  E(RM062X) =  -1046.29612559     A.U. after   13 cycles
 SCF Done:  E(RM062X) =  -1046.29612580     A.U. after   11 cycles
 SCF Done:  E(RM062X) =  -1046.29612625     A.U. after   11 cycles
 SCF Done:  E(RM062X) =  -1046.29612632     A.U. after   11 cycles
 SCF Done:  E(RM062X) =  -1046.29612645     A.U. after    9 cycles
 SCF Done:  E(RM062X) =  -1046.29612651     A.U. after    9 cycles
 Optimization completed.
    -- Stationary point found.
 Normal termination of Gaussian 09 at Wed Feb 20 11:50:38 2019.
 Gaussian 09:  ES64L-G09RevE.01 30-Nov-2015

 ----------------------------------------------------------------------
 # M062X/Gen 6D SCF=Tight INT(grid=ultrafine) OPT IOP(2/17=4) SCRF=(SMD
 ,Solvent=n-Pentadecane) Freq=Noraman maxdisk=2684354560 geom=check gue
 ss=read IOP(2/17=4)
 ----------------------------------------------------------------------

 ----------------------------------------
 3Nitro_EtO.M062X_6-31pGd_opt_Pentadecane
 ----------------------------------------
 Structure from the checkpoint file:  "3Nitro_EtO.M062X_6-31pGd_opt_Pentadecane.chk"
 Charge = -1 Multiplicity = 1

 SCF Done:  E(RM062X) =  -1046.29612651     A.U. after    1 cycles
 SCF Done:  E(RM062X) =  -1046.29612649     A.U. after   10 cycles
 SCF Done:  E(RM062X) =  -1046.29612640     A.U. after   10 cycles
 Optimization completed.
    -- Stationary point found.
 Normal termination of Gaussian 09 at Wed Feb 20 11:57:51 2019.

 ----------------------------------------------------------------------
 #N Geom=AllCheck Guess=TCheck SCRF=Check Test GenChk RM062X/ChkBas Fre
 q
 ----------------------------------------------------------------------

 Structure from the checkpoint file:  "3Nitro_EtO.M062X_6-31pGd_opt_Pentadecane.chk"
 ----------------------------------------
 3Nitro_EtO.M062X_6-31pGd_opt_Pentadecane
 ----------------------------------------
 Charge = -1 Multiplicity = 1

                         Standard orientation:
 ---------------------------------------------------------------------
 Center     Atomic      Atomic             Coordinates (Angstroms)
 Number     Number       Type             X           Y           Z
 ---------------------------------------------------------------------
      1          6           0       -4.467848    3.919858   -0.086266
      2          6           0       -3.753287    2.578802   -0.226119
      3          6           0       -2.274283    2.690778    0.126881
      4          7           0       -1.636054    1.396545    0.012698
      5          6           0       -0.287013    1.287157    0.045234
      6          8           0        0.471563    2.259115    0.112196
      7          7           0        0.150685   -0.027294   -0.013399
      8          6           0        1.457846   -0.474284   -0.021251
      9          6           0        2.589287    0.358470    0.008919
     10          6           0        1.648003   -1.872705   -0.068573
     11          6           0        2.921790   -2.422803   -0.083091
     12          6           0        4.055769   -1.612413   -0.052342
     13          6           0        3.844041   -0.240434   -0.007500
     14          1           0       -5.526966    3.835315   -0.350948
     15          1           0       -4.018823    4.677183   -0.739889
     16          1           0       -3.844909    2.204477   -1.253124
     17          1           0       -4.223932    1.827579    0.419652
     18          1           0       -2.162672    3.091412    1.146520
     19          1           0       -1.774278    3.398130   -0.545570
     20          1           0       -2.231266    0.551163    0.042587
     21          1           0        2.483348    1.433002    0.043992
     22          1           0        0.766254   -2.508674   -0.093167
     23          1           0        3.034472   -3.502397   -0.119250
     24          7           0        5.025003    0.639392    0.022497
     25          1           0        5.058697   -2.019451   -0.062680
     26          8           0        4.849967    1.845444    0.053261
     27          8           0        6.130677    0.115500    0.014795
     28          1           0       -4.409852    4.292783    0.943119
     29          1           0       -0.570035   -0.778687   -0.053832
     30          8           0       -1.571387   -2.205010   -0.104105
     31          8           0       -3.352802   -0.859444    0.109803
     32          6           0       -2.811590   -1.987718    0.007743
     33          6           0       -3.712765   -3.230072    0.022257
     34          6           0       -5.203004   -2.929218    0.103510
     35          1           0       -3.391792   -3.848304    0.870319
     36          1           0       -3.477065   -3.812542   -0.876853
     37          1           0       -5.436608   -2.360193    1.008214
     38          1           0       -5.792305   -3.853986    0.114006
     39          1           0       -5.525512   -2.324655   -0.749686
 ---------------------------------------------------------------------

 SCF Done:  E(RM062X) =  -1046.29612640     A.U. after    1 cycles

 The electronic state is 1-A.
 Alpha  occ. eigenvalues --  -19.63984 -19.63849 -19.54357 -19.52624 -19.52397
 Alpha  occ. eigenvalues --  -14.96978 -14.71961 -14.70201 -10.61321 -10.57326
 Alpha  occ. eigenvalues --  -10.56340 -10.55872 -10.51951 -10.51894 -10.51874
 Alpha  occ. eigenvalues --  -10.51214 -10.51037 -10.49273 -10.49170 -10.48057
 Alpha  occ. eigenvalues --  -10.47813  -1.32466  -1.13692  -1.10493  -1.08827
 Alpha  occ. eigenvalues --   -0.99332  -0.98795  -0.95891  -0.92752  -0.84992
 Alpha  occ. eigenvalues --   -0.82930  -0.80137  -0.79806  -0.74415  -0.72410
 Alpha  occ. eigenvalues --   -0.66754  -0.66461  -0.63647  -0.62615  -0.61050
 Alpha  occ. eigenvalues --   -0.59089  -0.58005  -0.56526  -0.55229  -0.52970
 Alpha  occ. eigenvalues --   -0.51922  -0.51069  -0.49674  -0.47365  -0.47216
 Alpha  occ. eigenvalues --   -0.46728  -0.46121  -0.45869  -0.45776  -0.44030
 Alpha  occ. eigenvalues --   -0.42642  -0.42044  -0.41071  -0.39624  -0.39439
 Alpha  occ. eigenvalues --   -0.39392  -0.38617  -0.37944  -0.37181  -0.35993
 Alpha  occ. eigenvalues --   -0.35051  -0.34572  -0.34409  -0.33942  -0.33747
 Alpha  occ. eigenvalues --   -0.33468  -0.32383  -0.28000  -0.27625  -0.25613
 Alpha  occ. eigenvalues --   -0.25036  -0.24751  -0.24635  -0.21000
 Alpha virt. eigenvalues --   -0.00630   0.06314   0.06619   0.06782   0.07265
 Alpha virt. eigenvalues --    0.07750   0.08068   0.08547   0.08768   0.09302
 Alpha virt. eigenvalues --    0.09430   0.09892   0.10799   0.10871   0.11151

 Mulliken charges:
               1
     1  C   -0.783235
     2  C   -0.343092
     3  C   -0.149075
     4  N   -0.739481
     5  C    0.703308
     6  O   -0.623314
     7  N   -0.721796
     8  C    0.536563
     9  C    0.227025
    10  C   -0.787747
    11  C   -0.491624
    12  C   -0.024735
    13  C   -0.155773
    14  H    0.207295
    15  H    0.207370
    16  H    0.226166
    17  H    0.241983
    18  H    0.209422
    19  H    0.221914
    20  H    0.522730
    21  H    0.313517
    22  H    0.277546
    23  H    0.221088
    24  N   -0.336494
    25  H    0.247146
    26  O   -0.044972
    27  O   -0.061520
    28  H    0.209005
    29  H    0.515205
    30  O   -0.694219
    31  O   -0.646287
    32  C    0.697906
    33  C   -0.487213
    34  C   -0.746115
    35  H    0.216554
    36  H    0.216284
    37  H    0.216839
    38  H    0.186268
    39  H    0.215559
 Sum of Mulliken charges =  -1.00000

 Dipole moment (field-independent basis, Debye):
    X=             -2.2573    Y=             -1.8695    Z=             -0.2057  Tot=              2.9381
 Quadrupole moment (field-independent basis, Debye-Ang):
   XX=           -195.6128   YY=           -145.3226   ZZ=           -129.6640
   XY=            -23.0064   XZ=             -0.1999   YZ=             -0.9550

  Exact polarizability: 306.204 -16.698 256.565  -0.948   4.584 136.374
 Approx polarizability: 285.908 -17.091 273.717  -1.170   5.179 160.575

                      1                      2                      3
                      A                      A                      A
 Frequencies --     20.1522                26.4779                37.2594
 Red. masses --      5.5677                 4.6496                 4.5196
 Frc consts  --      0.0013                 0.0019                 0.0037
 IR Inten    --      0.7412                 1.5529                 0.4777

                      4                      5                      6
                      A                      A                      A
 Frequencies --     42.9544                50.0830                56.1018
 Red. masses --      6.3366                 3.4191                 5.1847
 Frc consts  --      0.0069                 0.0051                 0.0096
 IR Inten    --      0.1058                 2.5956                 2.9284

                      7                      8                      9
                      A                      A                      A
 Frequencies --     59.9749                63.2233                75.0654
 Red. masses --      2.7010                 4.3341                 3.4114
 Frc consts  --      0.0057                 0.0102                 0.0113
 IR Inten    --      1.8906                 1.7292                 4.4050

                     10                     11                     12
                      A                      A                      A
 Frequencies --     81.4331                86.5221               107.9189
 Red. masses --      4.1110                 3.8822                 5.4546
 Frc consts  --      0.0161                 0.0171                 0.0374
 IR Inten    --      1.4438                 4.3065                 7.0799

                     13                     14                     15
                      A                      A                      A
 Frequencies --    131.8103               156.1167               177.5653
 Red. masses --      7.1811                 3.5251                 5.5722
 Frc consts  --      0.0735                 0.0506                 0.1035
 IR Inten    --     11.8796                14.3094                 2.8797

                     16                     17                     18
                      A                      A                      A
 Frequencies --    185.0436               231.2512               245.2913
 Red. masses --      4.0188                 1.1132                 1.9068
 Frc consts  --      0.0811                 0.0351                 0.0676
 IR Inten    --     13.9491                 0.4906                 0.3413

                     19                     20                     21
                      A                      A                      A
 Frequencies --    248.0027               257.5414               261.8068
 Red. masses --      1.7838                 4.1539                 6.5611
 Frc consts  --      0.0646                 0.1623                 0.2650
 IR Inten    --      0.8866                 1.3428                 9.7524

                     22                     23                     24
                      A                      A                      A
 Frequencies --    302.7655               346.2892               373.1695
 Red. masses --      3.9761                 4.6635                 6.9811
 Frc consts  --      0.2147                 0.3295                 0.5728
 IR Inten    --     13.5337                18.7578                 9.6365

                     25                     26                     27
                      A                      A                      A
 Frequencies --    410.2787               439.1483               460.2709
 Red. masses --      7.9158                 3.3444                 4.4541
 Frc consts  --      0.7851                 0.3800                 0.5559
 IR Inten    --      1.8998                 0.8141                 1.7339

                     28                     29                     30
                      A                      A                      A
 Frequencies --    523.1288               551.3073               558.0734
 Red. masses --      5.6907                 6.9025                 5.1649
 Frc consts  --      0.9176                 1.2361                 0.9477
 IR Inten    --     37.8064                 2.7098                 4.1151

                     31                     32                     33
                      A                      A                      A
 Frequencies --    585.3868               625.9462               659.1018
 Red. masses --      1.9699                 5.8392                 4.5762
 Frc consts  --      0.3977                 1.3480                 1.1713
 IR Inten    --      1.1847                14.5703                40.7819

                     34                     35                     36
                      A                      A                      A
 Frequencies --    688.7220               702.7737               755.9001
 Red. masses --      2.4594                 7.4535                 1.4350
 Frc consts  --      0.6873                 2.1689                 0.4831
 IR Inten    --     13.6055                28.0456                30.4270

                     37                     38                     39
                      A                      A                      A
 Frequencies --    760.1291               766.8112               775.6968
 Red. masses --      1.7385                 3.6288                 5.3452
 Frc consts  --      0.5918                 1.2571                 1.8950
 IR Inten    --     39.5249                40.4300                10.5182

                     40                     41                     42
                      A                      A                      A
 Frequencies --    806.5271               820.5437               825.0161
 Red. masses --      1.5597                 1.6645                 1.4695
 Frc consts  --      0.5978                 0.6603                 0.5893
 IR Inten    --      8.4078                14.5445                 4.0672

                     43                     44                     45
                      A                      A                      A
 Frequencies --    857.3054               890.8882               899.9225
 Red. masses --      9.8135                 3.9073                 1.1670
 Frc consts  --      4.2496                 1.8272                 0.5568
 IR Inten    --     15.0706                52.4414                 6.9331

                     46                     47                     48
                      A                      A                      A
 Frequencies --    926.9924               929.2727               941.9793
 Red. masses --      1.6771                 1.4413                 1.2382
 Frc consts  --      0.8491                 0.7333                 0.6473
 IR Inten    --     12.3464                 0.3496               119.8904

                     49                     50                     51
                      A                      A                      A
 Frequencies --    957.4725               982.0051              1012.3500
 Red. masses --      1.2194                 3.9220                 6.1912
 Frc consts  --      0.6587                 2.2284                 3.7384
 IR Inten    --     22.5232                20.9044                18.4188

                     52                     53                     54
                      A                      A                      A
 Frequencies --   1019.6930              1025.6557              1049.3121
 Red. masses --      1.3140                 1.6577                 4.0077
 Frc consts  --      0.8050                 1.0274                 2.5999
 IR Inten    --      3.5769                 4.7647                20.5574

                     55                     56                     57
                      A                      A                      A
 Frequencies --   1082.8831              1108.5055              1114.8504
 Red. masses --      2.4995                 1.7741                 2.3663
 Frc consts  --      1.7269                 1.2844                 1.7329
 IR Inten    --      5.5366                 0.6752                 4.5793

                     58                     59                     60
                      A                      A                      A
 Frequencies --   1120.0128              1133.0549              1158.2778
 Red. masses --      1.6654                 1.7147                 2.2283
 Frc consts  --      1.2309                 1.2970                 1.7614
 IR Inten    --     43.5118                 7.3588                 2.1336

                     61                     62                     63
                      A                      A                      A
 Frequencies --   1180.3809              1190.4312              1205.7851
 Red. masses --      1.7117                 2.6681                 1.3537
 Frc consts  --      1.4051                 2.2277                 1.1596
 IR Inten    --      8.9839                 7.5087                 2.2657

                     64                     65                     66
                      A                      A                      A
 Frequencies --   1273.8676              1287.8588              1301.0340
 Red. masses --      1.2066                 1.1841                 1.5101
 Frc consts  --      1.1536                 1.1571                 1.5060
 IR Inten    --      8.9388                 0.1396               115.9459

                     67                     68                     69
                      A                      A                      A
 Frequencies --   1309.2500              1324.6268              1330.3504
 Red. masses --      1.8842                 1.2706                 1.7763
 Frc consts  --      1.9030                 1.3135                 1.8523
 IR Inten    --    366.6098                31.2762                41.3587

                     70                     71                     72
                      A                      A                      A
 Frequencies --   1335.4631              1368.5412              1399.1087
 Red. masses --      1.6893                 1.9387                 3.9597
 Frc consts  --      1.7751                 2.1394                 4.5668
 IR Inten    --     58.5200               276.9573               310.9287

                     73                     74                     75
                      A                      A                      A
 Frequencies --   1425.0527              1425.6975              1434.9185
 Red. masses --      1.3400                 1.3564                 1.5712
 Frc consts  --      1.6033                 1.6243                 1.9060
 IR Inten    --      6.5181                33.9345                 9.5608

                     76                     77                     78
                      A                      A                      A
 Frequencies --   1466.3464              1473.8948              1485.2987
 Red. masses --     12.9868                 2.6713                 1.4182
 Frc consts  --     16.4523                 3.4191                 1.8434
 IR Inten    --    541.2544               242.3516                69.2800

                     79                     80                     81
                      A                      A                      A
 Frequencies --   1491.0791              1509.4332              1510.1135
 Red. masses --      3.0564                 1.0425                 1.0618
 Frc consts  --      4.0037                 1.3995                 1.4267
 IR Inten    --     12.2654                 7.8090                 9.2384

                     82                     83                     84
                      A                      A                      A
 Frequencies --   1520.5332              1521.3750              1524.6813
 Red. masses --      1.0411                 1.1041                 1.0731
 Frc consts  --      1.4182                 1.5057                 1.4698
 IR Inten    --      9.2560                62.8887                 2.2142

                     85                     86                     87
                      A                      A                      A
 Frequencies --   1536.8531              1548.8458              1618.6100
 Red. masses --      1.0911                 2.9445                 2.8275
 Frc consts  --      1.5184                 4.1617                 4.3645
 IR Inten    --     19.3218               266.6780               114.5992

                     88                     89                     90
                      A                      A                      A
 Frequencies --   1640.3584              1666.4569              1678.4672
 Red. masses --      2.4849                 8.9443                 3.0252
 Frc consts  --      3.9395                14.6348                 5.0215
 IR Inten    --     88.6442               968.7496               424.2213

                     91                     92                     93
                      A                      A                      A
 Frequencies --   1705.5637              1714.9749              1781.7835
 Red. masses --      4.2269                 5.5021                 3.0139
 Frc consts  --      7.2445                 9.5344                 5.6375
 IR Inten    --    372.2769               472.0359               429.7774

                     94                     95                     96
                      A                      A                      A
 Frequencies --   3030.2688              3067.1721              3068.9115
 Red. masses --      1.0695                 1.0895                 1.0369
 Frc consts  --      5.7862                 6.0388                 5.7537
 IR Inten    --     86.2593              1197.4187                46.3172

                     97                     98                     99
                      A                      A                      A
 Frequencies --   3072.1823              3077.7642              3079.6235
 Red. masses --      1.0577                 1.0499                 1.0614
 Frc consts  --      5.8819                 5.8595                 5.9310
 IR Inten    --     61.0765                 6.9546                28.1387

                    100                    101                    102
                      A                      A                      A
 Frequencies --   3090.1972              3109.8831              3116.7756
 Red. masses --      1.0925                 1.1010                 1.1030
 Frc consts  --      6.1469                 6.2737                 6.3128
 IR Inten    --     56.4129                15.5845                 6.0994

                    103                    104                    105
                      A                      A                      A
 Frequencies --   3139.8425              3141.8625              3144.8222
 Red. masses --      1.1035                 1.0978                 1.1014
 Frc consts  --      6.4100                 6.3848                 6.4176
 IR Inten    --     76.6433                57.7408                42.6387

                    106                    107                    108
                      A                      A                      A
 Frequencies --   3161.9881              3220.9760              3229.3588
 Red. masses --      1.1023                 1.0903                 1.0903
 Frc consts  --      6.4935                 6.6646                 6.6992
 IR Inten    --     43.4643                28.8650              1580.2733

                    109                    110                    111
                      A                      A                      A
 Frequencies --   3234.4221              3279.5003              3307.2679
 Red. masses --      1.0950                 1.0935                 1.0918
 Frc consts  --      6.7495                 6.9291                 7.0362
 IR Inten    --     38.2507                 1.1787                36.6732

 - Thermochemistry -
 -------------------
 Temperature   298.150 Kelvin.  Pressure   1.00000 Atm.
 Atom     1 has atomic number  6 and mass  12.00000

 Molecular mass:   296.12465 amu.
 Principal axes and moments of inertia in atomic units:
                           1         2         3
     Eigenvalues --  4392.53334********************
           X            0.99990  -0.01437  -0.00007
           Y            0.01437   0.99990  -0.00101
           Z            0.00008   0.00101   1.00000
 This molecule is an asymmetric top.
 Rotational symmetry number  1.
 Warning -- assumption of classical behavior for rotation
           may cause significant error
 Rotational temperatures (Kelvin)      0.01972     0.00685     0.00510
 Rotational constants (GHZ):           0.41087     0.14269     0.10635
 Zero-point vibrational energy     827270.7 (Joules/Mol)
                                  197.72245 (Kcal/Mol)
 Warning -- explicit consideration of  31 degrees of freedom as
           vibrations may cause significant error
 Vibrational temperatures:     28.99    38.10    53.61    61.80    72.06
          (Kelvin)             80.72    86.29    90.96   108.00   117.16
                              124.49   155.27   189.65   224.62   255.48
                              266.24   332.72   352.92   356.82   370.54
                              376.68   435.61   498.23   536.91   590.30
                              631.84   662.23   752.66   793.21   802.94
                              842.24   900.60   948.30   990.92  1011.13
                             1087.57  1093.65  1103.27  1116.05  1160.41
                             1180.58  1187.01  1233.47  1281.79  1294.79
                             1333.73  1337.01  1355.30  1377.59  1412.88
                             1456.54  1467.11  1475.69  1509.72  1558.03
                             1594.89  1604.02  1611.45  1630.21  1666.50
                             1698.30  1712.76  1734.85  1832.81  1852.94
                             1871.90  1883.72  1905.84  1914.08  1921.43
                             1969.02  2013.00  2050.33  2051.26  2064.53
                             2109.74  2120.60  2137.01  2145.33  2171.73
                             2172.71  2187.71  2188.92  2193.67  2211.19
                             2228.44  2328.82  2360.11  2397.66  2414.94
                             2453.92  2467.46  2563.59  4359.88  4412.97
                             4415.47  4420.18  4428.21  4430.89  4446.10
                             4474.42  4484.34  4517.53  4520.43  4524.69
                             4549.39  4634.26  4646.32  4653.61  4718.46
                             4758.41

 Zero-point correction=                           0.315091 (Hartree/Particle)
 Thermal correction to Energy=                    0.337346
 Thermal correction to Enthalpy=                  0.338290
 Thermal correction to Gibbs Free Energy=         0.259006
 Sum of electronic and zero-point Energies=          -1045.981036
 Sum of electronic and thermal Energies=             -1045.958781
 Sum of electronic and thermal Enthalpies=           -1045.957837
 Sum of electronic and thermal Free Energies=        -1046.037121

                     E (Thermal)             CV                S
                      KCal/Mol        Cal/Mol-Kelvin    Cal/Mol-Kelvin
 Total                  211.688             77.713            166.867
 Electronic               0.000              0.000              0.000
 Translational            0.889              2.981             42.954
 Rotational               0.889              2.981             35.199
 Vibrational            209.910             71.752             88.715
 Vibration     1          0.593              1.986              6.619
 Vibration     2          0.593              1.985              6.077
 Vibration     3          0.594              1.982              5.400
 Vibration     4          0.595              1.980              5.118
 Vibration     5          0.595              1.978              4.814
 Vibration     6          0.596              1.975              4.590
 Vibration     7          0.597              1.973              4.458
 Vibration     8          0.597              1.972              4.354
 Vibration     9          0.599              1.966              4.016
 Vibration    10          0.600              1.962              3.856
 Vibration    11          0.601              1.959              3.737
 Vibration    12          0.606              1.943              3.306
 Vibration    13          0.612              1.922              2.919
 Vibration    14          0.620              1.896              2.596
 Vibration    15          0.628              1.870              2.354
 Vibration    16          0.631              1.860              2.277
 Vibration    17          0.653              1.793              1.869
 Vibration    18          0.660              1.771              1.764
 Vibration    19          0.662              1.766              1.745
 Vibration    20          0.667              1.750              1.678
 Vibration    21          0.669              1.743              1.650
 Vibration    22          0.694              1.668              1.402
 Vibration    23          0.724              1.583              1.183
 Vibration    24          0.745              1.527              1.067
 Vibration    25          0.774              1.448              0.926
 Vibration    26          0.799              1.385              0.829
 Vibration    27          0.818              1.338              0.765
 Vibration    28          0.878              1.199              0.603
 Vibration    29          0.907              1.137              0.541
 Vibration    30          0.914              1.122              0.528
 Vibration    31          0.942              1.063              0.475

 Normal termination of Gaussian 09 at Wed Feb 20 12:42:10 2019.
