 Gaussian 09, Revision E.01,

 ----------------------------------------------------------------------
 # M062X/Gen 6D SCF=Tight INT(grid=ultrafine) OPT IOP(2/17=4) Freq=Nora
 man SCRF=(SMD,Solvent=h2o) maxdisk=2147483648
 ----------------------------------------------------------------------

 -------------------------------------------
 aryl_urea_dichloro_CF3_a1.M062X.SMD.h2o.opt
 -------------------------------------------
 Symbolic Z-matrix:
 Charge = -1 Multiplicity = 1

 SCF Done:  E(RM062X) =  -1829.61147435     A.U. after   16 cycles
 SCF Done:  E(RM062X) =  -1829.63601915     A.U. after   16 cycles
 SCF Done:  E(RM062X) =  -1829.63872577     A.U. after   16 cycles
 SCF Done:  E(RM062X) =  -1829.64335862     A.U. after   16 cycles
 SCF Done:  E(RM062X) =  -1829.64438877     A.U. after   14 cycles
 SCF Done:  E(RM062X) =  -1829.64455217     A.U. after   13 cycles
 SCF Done:  E(RM062X) =  -1829.64477129     A.U. after   13 cycles
 SCF Done:  E(RM062X) =  -1829.64480783     A.U. after   12 cycles
 SCF Done:  E(RM062X) =  -1829.64485967     A.U. after   13 cycles
 SCF Done:  E(RM062X) =  -1829.64486578     A.U. after   14 cycles
 SCF Done:  E(RM062X) =  -1829.64589831     A.U. after   12 cycles
 SCF Done:  E(RM062X) =  -1829.64589849     A.U. after   11 cycles
 SCF Done:  E(RM062X) =  -1829.64589846     A.U. after   10 cycles
 SCF Done:  E(RM062X) =  -1829.64589842     A.U. after    9 cycles
 SCF Done:  E(RM062X) =  -1829.64589835     A.U. after    9 cycles
 SCF Done:  E(RM062X) =  -1829.64589832     A.U. after    9 cycles
 SCF Done:  E(RM062X) =  -1829.64589833     A.U. after    9 cycles
 Optimization completed.
    -- Stationary point found.
 Normal termination of Gaussian 09 at Tue Jul 10 15:37:52 2018.

 ----------------------------------------------------------------------
 #N Geom=AllCheck Guess=TCheck SCRF=Check Test GenChk RM062X/ChkBas Fre
 q
 ----------------------------------------------------------------------

 Structure from the checkpoint file:  "aryl_urea_dichloro_CF3_a1.M062X.SMD.h2o.opt.chk"
 -------------------------------------------
 aryl_urea_dichloro_CF3_a1.M062X.SMD.h2o.opt
 -------------------------------------------
 Charge = -1 Multiplicity = 1

 SCF Done:  E(RM062X) =  -1829.64589833     A.U. after    1 cycles
 Optimization completed.
 Normal termination of Gaussian 09 at Tue Jul 10 16:25:20 2018.
 Gaussian 09:  ES64L-G09RevE.01 30-Nov-2015

 ----------------------------------------------------------------------
 # M062X/Gen 6D SCF=Tight INT(grid=ultrafine) OPT IOP(2/17=4) Freq=Nora
 man SCRF=(SMD,Solvent=h2o) geom=check guess=read IOP(2/17=4) maxdisk=2
 147483648
 ----------------------------------------------------------------------

 -------------------------------------------
 aryl_urea_dichloro_CF3_a1.M062X.SMD.h2o.opt
 -------------------------------------------
 Structure from the checkpoint file:  "aryl_urea_dichloro_CF3_a1.M062X.SMD.h2o.opt.chk"
 Charge = -1 Multiplicity = 1

 SCF Done:  E(RM062X) =  -1829.64589833     A.U. after    1 cycles
    -- Stationary point found.
 Normal termination of Gaussian 09 at Tue Jul 10 16:26:31 2018.

 ----------------------------------------------------------------------
 #N Geom=AllCheck Guess=TCheck SCRF=Check Test GenChk RM062X/ChkBas Fre
 q
 ----------------------------------------------------------------------

 Structure from the checkpoint file:  "aryl_urea_dichloro_CF3_a1.M062X.SMD.h2o.opt.chk"
 -------------------------------------------
 aryl_urea_dichloro_CF3_a1.M062X.SMD.h2o.opt
 -------------------------------------------
 Charge = -1 Multiplicity = 1

                         Standard orientation:
 ---------------------------------------------------------------------
 Center     Atomic      Atomic             Coordinates (Angstroms)
 Number     Number       Type             X           Y           Z
 ---------------------------------------------------------------------
      1          6           0        2.844913   -0.105993    0.047262
      2          6           0        2.322463    1.184752   -0.021474
      3          6           0        0.966431    1.350687   -0.244031
      4          6           0        0.057203    0.274428   -0.407819
      5          6           0        0.662420   -1.007141   -0.349241
      6          6           0        2.015801   -1.209939   -0.120476
      7          7           0       -1.259194    0.489721   -0.704644
      8          6           0       -2.180300   -0.045526    0.104191
      9          7           0       -3.469431   -0.069205   -0.410478
     10          8           0       -1.988074   -0.498162    1.270696
     11          6           0       -4.605347   -0.093854    0.504367
     12          6           0       -5.916220   -0.024352   -0.265348
     13          6           0       -7.117583   -0.035721    0.674987
     14          1           0       -3.590369    0.544866   -1.209611
     15          1           0       -4.553844    0.740903    1.220224
     16          1           0       -4.570405   -1.019684    1.086618
     17          1           0       -5.973350   -0.873252   -0.957649
     18          1           0       -5.929699    0.888408   -0.875370
     19          1           0       -7.130717   -0.948320    1.281551
     20          1           0       -8.057466    0.010155    0.116419
     21          1           0       -7.089764    0.820900    1.357754
     22          1           0        2.964566    2.051674    0.106825
     23          1           0        2.414661   -2.218494   -0.090413
     24          6           0        4.307242   -0.273190    0.304408
     25          9           0        4.699583   -1.557800    0.267057
     26          9           0        5.065442    0.390999   -0.595839
     27          9           0        4.676017    0.207386    1.513761
     28         17           0       -0.320954   -2.417018   -0.659287
     29         17           0        0.345061    2.981392   -0.306703
 ---------------------------------------------------------------------

 SCF Done:  E(RM062X) =  -1829.64589833     A.U. after    2 cycles

 The electronic state is 1-A.
 Alpha  occ. eigenvalues -- -102.67287-102.67269 -25.30769 -25.30294 -25.30226
 Alpha  occ. eigenvalues --  -19.59403 -14.75665 -14.71596 -10.81519 -10.65118
 Alpha  occ. eigenvalues --  -10.61720 -10.61716 -10.60879 -10.58166 -10.57657
 Alpha  occ. eigenvalues --  -10.57624 -10.56350 -10.53584 -10.52689  -9.81886
 Alpha  occ. eigenvalues --   -9.81879  -7.54287  -7.54280  -7.53643  -7.53641
 Alpha  occ. eigenvalues --   -7.53614  -7.53603  -1.46978  -1.37893  -1.37318
 Alpha  occ. eigenvalues --   -1.13937  -1.03025  -1.00671  -0.97337  -0.96765
 Alpha  occ. eigenvalues --   -0.93717  -0.87327  -0.85860  -0.83218  -0.80467
 Alpha  occ. eigenvalues --   -0.76124  -0.72347  -0.70507  -0.69264  -0.67733
 Alpha  occ. eigenvalues --   -0.67023  -0.64937  -0.63759  -0.59194  -0.58335
 Alpha  occ. eigenvalues --   -0.57547  -0.56453  -0.54130  -0.53449  -0.53288
 Alpha  occ. eigenvalues --   -0.53144  -0.52825  -0.52194  -0.51421  -0.49967
 Alpha  occ. eigenvalues --   -0.49635  -0.48748  -0.48172  -0.45839  -0.45269
 Alpha  occ. eigenvalues --   -0.44357  -0.43364  -0.42804  -0.41465  -0.39495
 Alpha  occ. eigenvalues --   -0.38974  -0.38793  -0.38519  -0.37360  -0.37227
 Alpha  occ. eigenvalues --   -0.33310  -0.31092  -0.30307  -0.29201  -0.25677
 Alpha virt. eigenvalues --    0.00227   0.00642   0.01314   0.02737   0.02791
 Alpha virt. eigenvalues --    0.03972   0.04266   0.04696   0.04916   0.05072
 Alpha virt. eigenvalues --    0.05462   0.06125   0.06522   0.06744   0.07972

 Mulliken charges:
               1
     1  C   -1.267123
     2  C    0.533531
     3  C   -0.136550
     4  C   -0.750467
     5  C    0.031130
     6  C    0.002502
     7  N   -0.569059
     8  C    0.545157
     9  N   -0.597324
    10  O   -0.804071
    11  C   -0.328602
    12  C   -0.352778
    13  C   -0.745244
    14  H    0.431260
    15  H    0.208651
    16  H    0.224928
    17  H    0.227296
    18  H    0.222535
    19  H    0.219567
    20  H    0.220158
    21  H    0.219959
    22  H    0.287117
    23  H    0.283665
    24  C    1.518022
    25  F   -0.343649
    26  F   -0.290015
    27  F   -0.284483
    28  Cl   0.149581
    29  Cl   0.144308
 Sum of Mulliken charges =  -1.00000

 Dipole moment (field-independent basis, Debye):
    X=              1.3098    Y=              1.0550    Z=             -2.1685  Tot=              2.7443
 Quadrupole moment (field-independent basis, Debye-Ang):
   XX=           -140.4061   YY=           -132.8755   ZZ=           -137.9075
   XY=             -4.6555   XZ=              4.3984   YZ=              2.3417

  Exact polarizability: 315.064   5.722 260.942  10.837  -3.616 186.189
 Approx polarizability: 249.580   3.383 229.751  12.226  -3.590 165.900

                      1                      2                      3
                      A                      A                      A
 Frequencies --     18.8812                25.8399                34.5894
 Red. masses --     17.1993                 6.0183                 7.5554
 Frc consts  --      0.0036                 0.0024                 0.0053
 IR Inten    --      0.1872                 4.6411                 2.0682

                      4                      5                      6
                      A                      A                      A
 Frequencies --     48.7953                75.8198                91.5770
 Red. masses --      2.6052                 2.8785                 4.5129
 Frc consts  --      0.0037                 0.0097                 0.0223
 IR Inten    --      3.7062                 2.0003                13.0319

                      7                      8                      9
                      A                      A                      A
 Frequencies --     96.9345               111.9972               135.5482
 Red. masses --      5.7071                11.8631                15.2522
 Frc consts  --      0.0316                 0.0877                 0.1651
 IR Inten    --      5.8540                 1.0105                 4.3481

                     10                     11                     12
                      A                      A                      A
 Frequencies --    162.9169               172.2446               192.6808
 Red. masses --      6.9834                 2.8105                11.2865
 Frc consts  --      0.1092                 0.0491                 0.2469
 IR Inten    --      6.2700                 9.5691                 1.3401

                     13                     14                     15
                      A                      A                      A
 Frequencies --    211.5494               227.4723               244.2078
 Red. masses --      4.7034                 6.3446                 1.1654
 Frc consts  --      0.1240                 0.1934                 0.0409
 IR Inten    --      0.8175                 4.5790                 0.0293

                     16                     17                     18
                      A                      A                      A
 Frequencies --    283.9922               306.9457               331.9268
 Red. masses --     10.4437                12.7934                14.9964
 Frc consts  --      0.4963                 0.7102                 0.9735
 IR Inten    --      2.3528                 7.6210                13.3104

                     19                     20                     21
                      A                      A                      A
 Frequencies --    345.7145               349.4893               391.6048
 Red. masses --      4.7658                 8.8540                 7.1785
 Frc consts  --      0.3356                 0.6372                 0.6486
 IR Inten    --     25.4801                 1.8825                 1.7631

                     22                     23                     24
                      A                      A                      A
 Frequencies --    418.5590               465.1262               499.5691
 Red. masses --      7.5107                 9.6881                 2.5952
 Frc consts  --      0.7753                 1.2349                 0.3816
 IR Inten    --      3.2589                15.5194                53.9988

                     25                     26                     27
                      A                      A                      A
 Frequencies --    517.9651               530.0423               552.0372
 Red. masses --      5.1987                 8.3786                 7.5012
 Frc consts  --      0.8218                 1.3869                 1.3468
 IR Inten    --     14.3878                 0.6107                40.8429

                     28                     29                     30
                      A                      A                      A
 Frequencies --    583.1049               619.3260               661.1639
 Red. masses --      1.9680                 7.9672                 5.6168
 Frc consts  --      0.3942                 1.8005                 1.4466
 IR Inten    --    198.1886                 8.6658                21.7602

                     31                     32                     33
                      A                      A                      A
 Frequencies --    688.4883               712.5119               757.4371
 Red. masses --     10.2883                 4.8552                 1.6438
 Frc consts  --      2.8733                 1.4523                 0.5556
 IR Inten    --     59.5431                63.8814                86.9906

                     34                     35                     36
                      A                      A                      A
 Frequencies --    769.3158               788.2760               803.0190
 Red. masses --      2.4649                 6.8949                11.1304
 Frc consts  --      0.8595                 2.5242                 4.2287
 IR Inten    --    132.2157                13.3464               118.4279

                     37                     38                     39
                      A                      A                      A
 Frequencies --    836.3920               902.0991               907.3418
 Red. masses --      9.1533                 6.0302                 1.1841
 Frc consts  --      3.7727                 2.8913                 0.5743
 IR Inten    --     97.2562                16.0479                20.3251

                     40                     41                     42
                      A                      A                      A
 Frequencies --    911.8791               918.4829               936.0230
 Red. masses --      1.5367                 1.3726                 1.6679
 Frc consts  --      0.7528                 0.6822                 0.8610
 IR Inten    --     80.4698                 2.7238                 0.2865

                     43                     44                     45
                      A                      A                      A
 Frequencies --   1028.0296              1079.6275              1107.7701
 Red. masses --      5.1089                 2.7113                 3.2954
 Frc consts  --      3.1812                 1.8620                 2.3826
 IR Inten    --    101.2910                20.2448                 3.3196

                     46                     47                     48
                      A                      A                      A
 Frequencies --   1136.0617              1144.6114              1145.0493
 Red. masses --      3.8559                10.5346                 2.1901
 Frc consts  --      2.9321                 8.1317                 1.6919
 IR Inten    --    144.7962               469.7144                21.4855

                     49                     50                     51
                      A                      A                      A
 Frequencies --   1166.7142              1186.5579              1190.5932
 Red. masses --      1.7616                11.0312                 2.9672
 Frc consts  --      1.4128                 9.1506                 2.4781
 IR Inten    --      6.3873               313.6761                81.9782

                     52                     53                     54
                      A                      A                      A
 Frequencies --   1242.6358              1268.6470              1289.9502
 Red. masses --      1.5996                 1.3404                 1.6835
 Frc consts  --      1.4553                 1.2710                 1.6504
 IR Inten    --     38.9872                23.2738               578.5067

                     55                     56                     57
                      A                      A                      A
 Frequencies --   1311.6953              1323.1490              1331.7639
 Red. masses --      6.6297                 1.2120                 1.5093
 Frc consts  --      6.7206                 1.2502                 1.5771
 IR Inten    --     98.1582               133.0885               127.1134

                     58                     59                     60
                      A                      A                      A
 Frequencies --   1352.0748              1397.3165              1422.9276
 Red. masses --      2.9180                 2.5110                 1.3223
 Frc consts  --      3.1429                 2.8886                 1.5774
 IR Inten    --    523.0585               895.8854                50.5458

                     61                     62                     63
                      A                      A                      A
 Frequencies --   1444.2013              1452.2866              1486.3961
 Red. masses --      2.2751                 3.6485                 1.8279
 Frc consts  --      2.7958                 4.5339                 2.3794
 IR Inten    --    549.5414               101.0951               579.1878

                     64                     65                     66
                      A                      A                      A
 Frequencies --   1493.0284              1503.8737              1514.5888
 Red. masses --      1.2456                 1.0400                 1.1360
 Frc consts  --      1.6359                 1.3858                 1.5353
 IR Inten    --    172.9941                10.8478                95.8887

                     67                     68                     69
                      A                      A                      A
 Frequencies --   1523.0722              1533.9993              1577.1596
 Red. masses --      7.0345                 1.1271                 4.0691
 Frc consts  --      9.6145                 1.5627                 5.9634
 IR Inten    --    305.4297                46.9993              1192.6687

                     70                     71                     72
                      A                      A                      A
 Frequencies --   1615.5266              1678.0741              3036.7301
 Red. masses --      8.9192                 6.3267                 1.0709
 Frc consts  --     13.7153                10.4966                 5.8185
 IR Inten    --      8.9908                60.6148                99.2439

                     73                     74                     75
                      A                      A                      A
 Frequencies --   3068.0058              3074.9704              3104.6307
 Red. masses --      1.0612                 1.0363                 1.0989
 Frc consts  --      5.8851                 5.7733                 6.2408
 IR Inten    --     54.4743                43.4308                20.2896

                     76                     77                     78
                      A                      A                      A
 Frequencies --   3128.0224              3144.2423              3152.5929
 Red. masses --      1.0957                 1.1035                 1.1023
 Frc consts  --      6.3167                 6.4276                 6.4546
 IR Inten    --     55.2814               103.4242                53.5490

                     79                     80                     81
                      A                      A                      A
 Frequencies --   3237.5808              3255.3412              3594.3184
 Red. masses --      1.0937                 1.0932                 1.0767
 Frc consts  --      6.7543                 6.8257                 8.1957
 IR Inten    --      1.5941                 2.2968                52.9433

 - Thermochemistry -
 -------------------
 Temperature   298.150 Kelvin.  Pressure   1.00000 Atm.
 Atom     1 has atomic number  6 and mass  12.00000

 Molecular mass:   313.01223 amu.
 Principal axes and moments of inertia in atomic units:
                           1         2         3
     Eigenvalues --  2809.26693********************
           X            0.99998   0.00112  -0.00579
           Y           -0.00113   1.00000  -0.00156
           Z            0.00579   0.00157   0.99998
 This molecule is an asymmetric top.
 Rotational symmetry number  1.
 Warning -- assumption of classical behavior for rotation
           may cause significant error
 Rotational temperatures (Kelvin)      0.03083     0.00638     0.00560
 Rotational constants (GHZ):           0.64242     0.13294     0.11674
 Zero-point vibrational energy     534627.3 (Joules/Mol)
                                  127.77899 (Kcal/Mol)
 Warning -- explicit consideration of  29 degrees of freedom as
           vibrations may cause significant error
 Vibrational temperatures:     27.17    37.18    49.77    70.21   109.09
          (Kelvin)            131.76   139.47   161.14   195.02   234.40
                              247.82   277.22   304.37   327.28   351.36
                              408.60   441.63   477.57   497.41   502.84
                              563.43   602.21   669.21   718.77   745.24
                              762.61   794.26   838.96   891.07   951.27
                              990.58  1025.14  1089.78  1106.87  1134.15
                             1155.36  1203.38  1297.92  1305.46  1311.99
                             1321.49  1346.73  1479.10  1553.34  1593.83
                             1634.54  1646.84  1647.47  1678.64  1707.19
                             1713.00  1787.87  1825.30  1855.95  1887.23
                             1903.71  1916.11  1945.33  2010.42  2047.27
                             2077.88  2089.51  2138.59  2148.13  2163.74
                             2179.15  2191.36  2207.08  2269.18  2324.38
                             2414.37  4369.17  4414.17  4424.19  4466.87
                             4500.52  4523.86  4535.87  4658.15  4683.70
                             5171.42

 Zero-point correction=                           0.203629 (Hartree/Particle)
 Thermal correction to Energy=                    0.222293
 Thermal correction to Enthalpy=                  0.223237
 Thermal correction to Gibbs Free Energy=         0.153302
 Sum of electronic and zero-point Energies=          -1829.442270
 Sum of electronic and thermal Energies=             -1829.423605
 Sum of electronic and thermal Enthalpies=           -1829.422661
 Sum of electronic and thermal Free Energies=        -1829.492597

                     E (Thermal)             CV                S
                      KCal/Mol        Cal/Mol-Kelvin    Cal/Mol-Kelvin
 Total                  139.491             66.458            147.192
 Electronic               0.000              0.000              0.000
 Translational            0.889              2.981             43.119
 Rotational               0.889              2.981             34.732
 Vibrational            137.714             60.496             69.340
 Vibration     1          0.593              1.986              6.749
 Vibration     2          0.593              1.985              6.126
 Vibration     3          0.594              1.983              5.547
 Vibration     4          0.595              1.978              4.866
 Vibration     5          0.599              1.965              3.996
 Vibration     6          0.602              1.955              3.626
 Vibration     7          0.603              1.951              3.515
 Vibration     8          0.607              1.940              3.234
 Vibration     9          0.613              1.918              2.866
 Vibration    10          0.623              1.888              2.516
 Vibration    11          0.626              1.877              2.411
 Vibration    12          0.635              1.850              2.202
 Vibration    13          0.643              1.823              2.030
 Vibration    14          0.651              1.799              1.899
 Vibration    15          0.660              1.772              1.772
 Vibration    16          0.682              1.703              1.510
 Vibration    17          0.697              1.661              1.379
 Vibration    18          0.714              1.612              1.251
 Vibration    19          0.724              1.584              1.186
 Vibration    20          0.727              1.576              1.168
 Vibration    21          0.759              1.488              0.994
 Vibration    22          0.781              1.430              0.897
 Vibration    23          0.823              1.327              0.751
 Vibration    24          0.855              1.251              0.659
 Vibration    25          0.873              1.210              0.615
 Vibration    26          0.885              1.184              0.587
 Vibration    27          0.907              1.135              0.540
 Vibration    28          0.940              1.068              0.480
 Vibration    29          0.979              0.991              0.418

 Optimization completed.
    -- Stationary point found.
 Normal termination of Gaussian 09 at Tue Jul 10 17:14:15 2018.
