 Gaussian 09, Revision E.01,

 ----------------------------------------------------------------------
 # M062X/Gen 6D SCF=Tight INT(grid=ultrafine) OPT IOP(2/17=4) Freq=Nora
 man maxdisk=2147483648
 ----------------------------------------------------------------------

 --------------------------------
 aryl_urea_dichloro_CF3.M062X.opt
 --------------------------------
 Symbolic Z-matrix:
 Charge =  0 Multiplicity = 1

 SCF Done:  E(RM062X) =  -1830.07730441     A.U. after   16 cycles
 SCF Done:  E(RM062X) =  -1830.09133365     A.U. after   16 cycles
 SCF Done:  E(RM062X) =  -1830.09473390     A.U. after   16 cycles
 SCF Done:  E(RM062X) =  -1830.09824336     A.U. after   15 cycles
 SCF Done:  E(RM062X) =  -1830.09919337     A.U. after   14 cycles
 SCF Done:  E(RM062X) =  -1830.09957784     A.U. after   13 cycles
 SCF Done:  E(RM062X) =  -1830.09992114     A.U. after   14 cycles
 SCF Done:  E(RM062X) =  -1830.10012874     A.U. after   14 cycles
 SCF Done:  E(RM062X) =  -1830.10028577     A.U. after   13 cycles
 SCF Done:  E(RM062X) =  -1830.10042584     A.U. after   13 cycles
 SCF Done:  E(RM062X) =  -1830.10077347     A.U. after   13 cycles
 SCF Done:  E(RM062X) =  -1830.10077943     A.U. after   11 cycles
 SCF Done:  E(RM062X) =  -1830.10078264     A.U. after   11 cycles
 SCF Done:  E(RM062X) =  -1830.10078399     A.U. after   11 cycles
 SCF Done:  E(RM062X) =  -1830.10078504     A.U. after   11 cycles
 SCF Done:  E(RM062X) =  -1830.10078533     A.U. after   10 cycles
 SCF Done:  E(RM062X) =  -1830.10078537     A.U. after    9 cycles
 Optimization completed.
    -- Stationary point found.
 Normal termination of Gaussian 09 at Tue Jul 10 15:02:35 2018.

 ----------------------------------------------------------------------
 #N Geom=AllCheck Guess=TCheck SCRF=Check Test GenChk RM062X/ChkBas Fre
 q
 ----------------------------------------------------------------------

 Structure from the checkpoint file:  "aryl_urea_dichloro_CF3.M062X.opt.chk"
 --------------------------------
 aryl_urea_dichloro_CF3.M062X.opt
 --------------------------------
 Charge =  0 Multiplicity = 1

 SCF Done:  E(RM062X) =  -1830.10078537     A.U. after    2 cycles
 Normal termination of Gaussian 09 at Tue Jul 10 15:52:22 2018.
 Gaussian 09:  ES64L-G09RevE.01 30-Nov-2015

 ----------------------------------------------------------------------
 # M062X/Gen 6D SCF=Tight INT(grid=ultrafine) OPT IOP(2/17=4) Freq=Nora
 man geom=check guess=read IOP(2/17=4) maxdisk=2147483648
 ----------------------------------------------------------------------

 --------------------------------
 aryl_urea_dichloro_CF3.M062X.opt
 --------------------------------
 Structure from the checkpoint file:  "aryl_urea_dichloro_CF3.M062X.opt.chk"
 Charge =  0 Multiplicity = 1

 SCF Done:  E(RM062X) =  -1830.10078537     A.U. after    1 cycles
 Optimization completed.
    -- Stationary point found.
 Normal termination of Gaussian 09 at Tue Jul 10 15:53:24 2018.

 ----------------------------------------------------------------------
 #N Geom=AllCheck Guess=TCheck SCRF=Check Test GenChk RM062X/ChkBas Fre
 q
 ----------------------------------------------------------------------

 Structure from the checkpoint file:  "aryl_urea_dichloro_CF3.M062X.opt.chk"
 --------------------------------
 aryl_urea_dichloro_CF3.M062X.opt
 --------------------------------
 Charge =  0 Multiplicity = 1

                         Standard orientation:
 ---------------------------------------------------------------------
 Center     Atomic      Atomic             Coordinates (Angstroms)
 Number     Number       Type             X           Y           Z
 ---------------------------------------------------------------------
      1          6           0        2.845179   -0.103253    0.084528
      2          6           0        2.325959    1.186138    0.011576
      3          6           0        0.977485    1.348638   -0.261224
      4          6           0        0.123318    0.256279   -0.484313
      5          6           0        0.692973   -1.024464   -0.439077
      6          6           0        2.038293   -1.210524   -0.139166
      7          7           0       -1.232029    0.436501   -0.781220
      8          6           0       -2.207807   -0.066080    0.109811
      9          7           0       -3.482668    0.192509   -0.312159
     10          8           0       -1.926891   -0.641240    1.140283
     11          6           0       -4.607452   -0.337022    0.448139
     12          6           0       -5.909741    0.318562    0.007093
     13          6           0       -7.103009   -0.223182    0.790928
     14          1           0       -1.459449    1.336676   -1.189173
     15          1           0       -3.618875    0.314335   -1.308406
     16          1           0       -4.410718   -0.133076    1.504323
     17          1           0       -4.668899   -1.428900    0.337242
     18          1           0       -6.064934    0.141551   -1.066265
     19          1           0       -5.826037    1.403328    0.142461
     20          1           0       -7.210215   -1.303759    0.648347
     21          1           0       -8.034419    0.251625    0.470477
     22          1           0       -6.982769   -0.037537    1.863464
     23          1           0        2.955739    2.053797    0.179932
     24          1           0        2.445512   -2.214389   -0.101668
     25          6           0        4.307658   -0.264010    0.394219
     26          9           0        4.677534   -1.551115    0.451151
     27          9           0        5.076668    0.333452   -0.535143
     28          9           0        4.627629    0.299660    1.572720
     29         17           0       -0.267847   -2.413133   -0.816386
     30         17           0        0.324286    2.961294   -0.329672
 ---------------------------------------------------------------------

 SCF Done:  E(RM062X) =  -1830.10078537     A.U. after    1 cycles

 The electronic state is 1-A.
 Alpha  occ. eigenvalues -- -102.70096-102.68609 -25.31180 -25.30647 -25.30635
 Alpha  occ. eigenvalues --  -19.62797 -14.81409 -14.80029 -10.82226 -10.69790
 Alpha  occ. eigenvalues --  -10.64917 -10.64426 -10.64200 -10.60568 -10.59930
 Alpha  occ. eigenvalues --  -10.59679 -10.59177 -10.56290 -10.54998  -9.84724
 Alpha  occ. eigenvalues --   -9.83217  -7.57128  -7.56463  -7.56448  -7.55639
 Alpha  occ. eigenvalues --   -7.54949  -7.54927  -1.47557  -1.38440  -1.37887
 Alpha  occ. eigenvalues --   -1.19489  -1.08445  -1.05165  -1.01520  -0.99905
 Alpha  occ. eigenvalues --   -0.96004  -0.90171  -0.88428  -0.85537  -0.82571
 Alpha  occ. eigenvalues --   -0.79080  -0.74427  -0.72894  -0.70192  -0.69781
 Alpha  occ. eigenvalues --   -0.69755  -0.68792  -0.66200  -0.65241  -0.63121
 Alpha  occ. eigenvalues --   -0.59201  -0.57873  -0.57523  -0.57253  -0.55623
 Alpha  occ. eigenvalues --   -0.54854  -0.53921  -0.53830  -0.53319  -0.52174
 Alpha  occ. eigenvalues --   -0.51954  -0.51886  -0.51736  -0.50238  -0.48537
 Alpha  occ. eigenvalues --   -0.46955  -0.46854  -0.46025  -0.45142  -0.43919
 Alpha  occ. eigenvalues --   -0.42075  -0.41258  -0.40934  -0.40844  -0.39098
 Alpha  occ. eigenvalues --   -0.38254  -0.36387  -0.33467  -0.32211  -0.30916
 Alpha virt. eigenvalues --   -0.02190  -0.01537  -0.00194   0.01756   0.02028
 Alpha virt. eigenvalues --    0.02317   0.02613   0.03845   0.03933   0.04110
 Alpha virt. eigenvalues --    0.04995   0.05214   0.05499   0.05610   0.06012

 Mulliken charges:
               1
     1  C   -1.301159
     2  C    0.590516
     3  C   -0.242445
     4  C    0.099405
     5  C   -0.162614
     6  C   -0.219796
     7  N   -0.700609
     8  C    0.232779
     9  N   -0.565117
    10  O   -0.469782
    11  C   -0.200958
    12  C   -0.306777
    13  C   -0.713432
    14  H    0.428165
    15  H    0.403941
    16  H    0.242721
    17  H    0.219464
    18  H    0.203852
    19  H    0.226909
    20  H    0.214345
    21  H    0.214990
    22  H    0.215472
    23  H    0.258757
    24  H    0.262006
    25  C    1.471606
    26  F   -0.330153
    27  F   -0.260915
    28  F   -0.260672
    29  Cl   0.247213
    30  Cl   0.202290
 Sum of Mulliken charges =  -0.00000

 Dipole moment (field-independent basis, Debye):
    X=             -4.0845    Y=              1.6006    Z=             -2.6575  Tot=              5.1291
 Quadrupole moment (field-independent basis, Debye-Ang):
   XX=           -115.0343   YY=           -122.6625   ZZ=           -127.0300
   XY=             -1.7180   XZ=              4.6379   YZ=              0.0798

  Exact polarizability: 223.377   1.708 175.966   8.610  -0.838 117.446
 Approx polarizability: 225.176   0.445 227.115  16.861  -3.255 157.897

                      1                      2                      3
                      A                      A                      A
 Frequencies --      7.8031                18.6286                31.0196
 Red. masses --     17.8198                 4.4902                 7.1655
 Frc consts  --      0.0006                 0.0009                 0.0041
 IR Inten    --      0.1078                 0.2682                 0.1451

                      4                      5                      6
                      A                      A                      A
 Frequencies --     46.7542                68.1263                82.8263
 Red. masses --      2.0446                 4.4313                 4.7933
 Frc consts  --      0.0026                 0.0121                 0.0194
 IR Inten    --      0.0032                 2.4184                 3.3350

                      7                      8                      9
                      A                      A                      A
 Frequencies --     93.3763               113.3921               132.6820
 Red. masses --      5.1135                11.2636                14.6108
 Frc consts  --      0.0263                 0.0853                 0.1515
 IR Inten    --      1.2175                 0.6504                 1.9619

                     10                     11                     12
                      A                      A                      A
 Frequencies --    153.7262               185.1939               201.1205
 Red. masses --      8.7104                 4.0516                 6.1313
 Frc consts  --      0.1213                 0.0819                 0.1461
 IR Inten    --      7.3635                 2.8947                 0.3498

                     13                     14                     15
                      A                      A                      A
 Frequencies --    209.2804               229.0768               239.4421
 Red. masses --      4.7740                 4.7852                 1.1614
 Frc consts  --      0.1232                 0.1480                 0.0392
 IR Inten    --      0.2261                 4.8292                 0.1419

                     16                     17                     18
                      A                      A                      A
 Frequencies --    284.3918               301.2346               326.7706
 Red. masses --      8.6494                 8.4203                 5.0862
 Frc consts  --      0.4122                 0.4502                 0.3200
 IR Inten    --      0.1029                 1.8014                11.2987

                     19                     20                     21
                      A                      A                      A
 Frequencies --    330.4907               341.3391               391.5723
 Red. masses --      7.2961                 9.6732                 5.8167
 Frc consts  --      0.4695                 0.6640                 0.5255
 IR Inten    --     24.0647                 3.2528                14.2609

                     22                     23                     24
                      A                      A                      A
 Frequencies --    412.3546               442.1559               465.3211
 Red. masses --      4.3821                 1.8109                 9.2847
 Frc consts  --      0.4390                 0.2086                 1.1845
 IR Inten    --     20.5373                57.3507                 4.9943

                     25                     26                     27
                      A                      A                      A
 Frequencies --    497.3151               523.3428               529.8444
 Red. masses --      1.5379                 8.3640                 5.4905
 Frc consts  --      0.2241                 1.3497                 0.9082
 IR Inten    --     72.4399                 1.5978                 5.0915

                     28                     29                     30
                      A                      A                      A
 Frequencies --    544.5625               552.0793               612.5490
 Red. masses --      3.4371                 4.2320                 8.3126
 Frc consts  --      0.6005                 0.7600                 1.8377
 IR Inten    --     32.4711                29.3797                 0.1815

                     31                     32                     33
                      A                      A                      A
 Frequencies --    669.1275               696.3093               713.1340
 Red. masses --      6.7985                10.0615                 4.3576
 Frc consts  --      1.7934                 2.8742                 1.3057
 IR Inten    --      2.5453                25.6344                20.8400

                     34                     35                     36
                      A                      A                      A
 Frequencies --    753.3856               764.3104               783.8488
 Red. masses --      2.4797                 1.5934                 5.7192
 Frc consts  --      0.8292                 0.5484                 2.0704
 IR Inten    --     19.1918                 5.1088                 5.6756

                     37                     38                     39
                      A                      A                      A
 Frequencies --    819.4973               860.3321               901.4056
 Red. masses --      9.2893                 6.2446                 1.2600
 Frc consts  --      3.6756                 2.7232                 0.6032
 IR Inten    --     60.2799                42.9917                 5.7329

                     40                     41                     42
                      A                      A                      A
 Frequencies --    909.7859               920.1396               926.0636
 Red. masses --      1.5091                 3.8019                 1.4365
 Frc consts  --      0.7360                 1.8965                 0.7258
 IR Inten    --     27.8970                20.7033                 7.0220

                     43                     44                     45
                      A                      A                      A
 Frequencies --    932.7450              1038.2100              1075.0552
 Red. masses --      1.7878                 4.0156                 2.7875
 Frc consts  --      0.9164                 2.5502                 1.8982
 IR Inten    --      1.1187                15.6184                 7.2698

                     46                     47                     48
                      A                      A                      A
 Frequencies --   1113.6604              1144.3696              1152.5958
 Red. masses --      2.4123                 2.3081                 6.5048
 Frc consts  --      1.7627                 1.7809                 5.0914
 IR Inten    --      3.5861                 0.2180               103.8234

                     49                     50                     51
                      A                      A                      A
 Frequencies --   1165.2568              1184.2258              1217.1511
 Red. masses --      2.3581                 1.8749                12.9128
 Frc consts  --      1.8865                 1.5491                11.2710
 IR Inten    --      8.9186                 1.2123               271.5895

                     52                     53                     54
                      A                      A                      A
 Frequencies --   1230.5301              1247.8550              1251.5192
 Red. masses --      2.1368                 2.4862                 2.1145
 Frc consts  --      1.9063                 2.2809                 1.9514
 IR Inten    --     86.5109               160.1860               158.7874

                     55                     56                     57
                      A                      A                      A
 Frequencies --   1283.6102              1300.4190              1327.4461
 Red. masses --      1.3547                 2.3758                 1.2768
 Frc consts  --      1.3151                 2.3671                 1.3256
 IR Inten    --     66.0875                87.1827                48.3308

                     58                     59                     60
                      A                      A                      A
 Frequencies --   1331.1280              1347.2727              1381.0848
 Red. masses --      3.0573                 1.3614                 8.1452
 Frc consts  --      3.1917                 1.4559                 9.1536
 IR Inten    --     42.0503                12.3128               553.6319

                     61                     62                     63
                      A                      A                      A
 Frequencies --   1425.4272              1438.1987              1443.9575
 Red. masses --      1.5343                 1.3157                 2.9340
 Frc consts  --      1.8367                 1.6034                 3.6043
 IR Inten    --     11.1086                 1.6851               141.0621

                     64                     65                     66
                      A                      A                      A
 Frequencies --   1504.6287              1516.4395              1525.2500
 Red. masses --      1.8872                 1.0600                 1.0432
 Frc consts  --      2.5172                 1.4362                 1.4299
 IR Inten    --     12.5654                 5.9543                13.1924

                     67                     68                     69
                      A                      A                      A
 Frequencies --   1527.4523              1539.6603              1555.0531
 Red. masses --      1.0721                 1.1030                 4.8720
 Frc consts  --      1.4737                 1.5406                 6.9414
 IR Inten    --      1.2412                 7.8724               133.6077

                     70                     71                     72
                      A                      A                      A
 Frequencies --   1558.3441              1655.8868              1690.7277
 Red. masses --      2.1742                 6.9887                 7.1737
 Frc consts  --      3.1108                11.2904                12.0820
 IR Inten    --    619.1111                23.1797                 7.6438

                     73                     74                     75
                      A                      A                      A
 Frequencies --   1844.8154              3057.8355              3059.6970
 Red. masses --      9.9715                 1.0668                 1.0694
 Frc consts  --     19.9949                 5.8771                 5.8988
 IR Inten    --    276.6657                15.0286                39.6896

                     76                     77                     78
                      A                      A                      A
 Frequencies --   3080.2492              3108.4021              3145.0585
 Red. masses --      1.0364                 1.0959                 1.0971
 Frc consts  --      5.7934                 6.2386                 6.3940
 IR Inten    --     29.7630                13.9143                 0.9418

                     79                     80                     81
                      A                      A                      A
 Frequencies --   3152.4919              3160.5473              3248.4422
 Red. masses --      1.1017                 1.1019                 1.0932
 Frc consts  --      6.4509                 6.4849                 6.7968
 IR Inten    --     46.7302                27.8418                 1.5346

                     82                     83                     84
                      A                      A                      A
 Frequencies --   3264.7281              3607.0968              3624.5301
 Red. masses --      1.0928                 1.0757                 1.0772
 Frc consts  --      6.8623                 8.2464                 8.3381
 IR Inten    --      2.9369                40.0948                35.5225

 - Thermochemistry -
 -------------------
 Temperature   298.150 Kelvin.  Pressure   1.00000 Atm.
 Atom     1 has atomic number  6 and mass  12.00000

 Molecular mass:   314.02005 amu.
 Principal axes and moments of inertia in atomic units:
                           1         2         3
     Eigenvalues --  2869.07655********************
           X            0.99997   0.00191  -0.00688
           Y           -0.00196   0.99998  -0.00659
           Z            0.00687   0.00661   0.99995
 This molecule is an asymmetric top.
 Rotational symmetry number  1.
 Warning -- assumption of classical behavior for rotation
           may cause significant error
 Rotational temperatures (Kelvin)      0.03019     0.00638     0.00562
 Rotational constants (GHZ):           0.62903     0.13296     0.11703
 Zero-point vibrational energy     571481.0 (Joules/Mol)
                                  136.58724 (Kcal/Mol)
 Warning -- explicit consideration of  30 degrees of freedom as
           vibrations may cause significant error
 Vibrational temperatures:     11.23    26.80    44.63    67.27    98.02
          (Kelvin)            119.17   134.35   163.15   190.90   221.18
                              266.45   289.37   301.11   329.59   344.50
                              409.18   433.41   470.15   475.50   491.11
                              563.38   593.29   636.16   669.49   715.52
                              752.97   762.33   783.50   794.32   881.32
                              962.72  1001.83  1026.04  1083.95  1099.67
                             1127.78  1179.07  1237.82  1296.92  1308.98
                             1323.87  1332.40  1342.01  1493.75  1546.76
                             1602.31  1646.49  1658.33  1676.54  1703.83
                             1751.21  1770.46  1795.38  1800.65  1846.83
                             1871.01  1909.90  1915.19  1938.42  1987.07
                             2050.87  2069.24  2077.53  2164.82  2181.82
                             2194.49  2197.66  2215.23  2237.37  2242.11
                             2382.45  2432.58  2654.27  4399.54  4402.22
                             4431.79  4472.29  4525.03  4535.73  4547.32
                             4673.78  4697.21  5189.80  5214.88

 Zero-point correction=                           0.217666 (Hartree/Particle)
 Thermal correction to Energy=                    0.236729
 Thermal correction to Enthalpy=                  0.237673
 Thermal correction to Gibbs Free Energy=         0.165750
 Sum of electronic and zero-point Energies=          -1829.883120
 Sum of electronic and thermal Energies=             -1829.864056
 Sum of electronic and thermal Enthalpies=           -1829.863112
 Sum of electronic and thermal Free Energies=        -1829.935036

                     E (Thermal)             CV                S
                      KCal/Mol        Cal/Mol-Kelvin    Cal/Mol-Kelvin
 Total                  148.550             67.844            151.376
 Electronic               0.000              0.000              0.000
 Translational            0.889              2.981             43.129
 Rotational               0.889              2.981             34.751
 Vibrational            146.772             61.883             73.496
 Vibration     1          0.593              1.987              8.504
 Vibration     2          0.593              1.986              6.775
 Vibration     3          0.594              1.984              5.763
 Vibration     4          0.595              1.979              4.950
 Vibration     5          0.598              1.969              4.207
 Vibration     6          0.600              1.961              3.823
 Vibration     7          0.602              1.954              3.588
 Vibration     8          0.607              1.938              3.210
 Vibration     9          0.613              1.921              2.907
 Vibration    10          0.619              1.899              2.626
 Vibration    11          0.631              1.860              2.275
 Vibration    12          0.638              1.838              2.123
 Vibration    13          0.642              1.827              2.050
 Vibration    14          0.652              1.797              1.886
 Vibration    15          0.657              1.780              1.807
 Vibration    16          0.683              1.703              1.507
 Vibration    17          0.693              1.671              1.410
 Vibration    18          0.710              1.622              1.276
 Vibration    19          0.713              1.615              1.258
 Vibration    20          0.721              1.593              1.206
 Vibration    21          0.759              1.488              0.994
 Vibration    22          0.776              1.443              0.918
 Vibration    23          0.802              1.378              0.820
 Vibration    24          0.823              1.327              0.751
 Vibration    25          0.853              1.256              0.665
 Vibration    26          0.878              1.198              0.602
 Vibration    27          0.885              1.184              0.588
 Vibration    28          0.900              1.152              0.556
 Vibration    29          0.907              1.135              0.540
 Vibration    30          0.972              1.005              0.429

 Normal termination of Gaussian 09 at Tue Jul 10 16:42:50 2018.
