 Gaussian 09, Revision E.01,

 ------------------------------------------------------------
 # M062X/Gen 6D SCF=Tight INT(grid=ultrafine) OPT IOP(2/17=4)
 ------------------------------------------------------------

 --------------------------------
 triclofen_a2cl.M062X_6-31pGd_opt
 --------------------------------
 Symbolic Z-matrix:
 Charge = -1 Multiplicity = 1

 SCF Done:  E(RM062X) =  -2065.24655046     A.U. after   18 cycles
 SCF Done:  E(RM062X) =  -2065.27102975     A.U. after   14 cycles
 SCF Done:  E(RM062X) =  -2065.27308764     A.U. after   17 cycles
 SCF Done:  E(RM062X) =  -2065.27418503     A.U. after   16 cycles
 SCF Done:  E(RM062X) =  -2065.27438885     A.U. after   13 cycles
 SCF Done:  E(RM062X) =  -2065.27442023     A.U. after   13 cycles
 SCF Done:  E(RM062X) =  -2065.27443354     A.U. after   12 cycles
 SCF Done:  E(RM062X) =  -2065.27443362     A.U. after   10 cycles
 SCF Done:  E(RM062X) =  -2065.27443375     A.U. after    9 cycles
 Optimization completed.
    -- Stationary point found.
 Normal termination of Gaussian 09 at Mon Oct  8 12:42:58 2018.
 Gaussian 09:  ES64L-G09RevE.01 30-Nov-2015

 ----------------------------------------------------------------------
 # M062X/Gen 6D SCF=Tight INT(grid=ultrafine) Freq=Noraman OPT IOP(2/17
 =4) geom=check guess=read IOP(2/17=4)
 ----------------------------------------------------------------------

 --------------------------------
 triclofen_a2cl.M062X_6-31pGd_opt
 --------------------------------
 Structure from the checkpoint file:  "triclofen_a2cl.M062X_6-31pGd_opt.chk"
 Charge = -1 Multiplicity = 1

 SCF Done:  E(RM062X) =  -2065.27443375     A.U. after    2 cycles
 SCF Done:  E(RM062X) =  -2065.27443359     A.U. after    9 cycles
 SCF Done:  E(RM062X) =  -2065.27443378     A.U. after    9 cycles
 Optimization completed.
    -- Stationary point found.
 Normal termination of Gaussian 09 at Mon Oct  8 13:20:50 2018.

 ----------------------------------------------------------------------
 #N Geom=AllCheck Guess=TCheck SCRF=Check Test GenChk RM062X/ChkBas Fre
 q
 ----------------------------------------------------------------------

 Structure from the checkpoint file:  "triclofen_a2cl.M062X_6-31pGd_opt.chk"
 --------------------------------
 triclofen_a2cl.M062X_6-31pGd_opt
 --------------------------------
 Charge = -1 Multiplicity = 1

                         Standard orientation:
 ---------------------------------------------------------------------
 Center     Atomic      Atomic             Coordinates (Angstroms)
 Number     Number       Type             X           Y           Z
 ---------------------------------------------------------------------
      1          6           0        4.536901   -0.727170    0.000060
      2          6           0        4.227444    0.634409    0.000081
      3          6           0        2.911307    1.061429   -0.000019
      4          6           0        1.821917    0.152666   -0.000146
      5          6           0        2.158236   -1.228946   -0.000130
      6          6           0        3.484935   -1.640009   -0.000045
      7         17           0        5.501535    1.838544    0.000249
      8         17           0        6.187775   -1.305536    0.000179
      9          7           0        0.576674    0.718048   -0.000218
     10          6           0       -0.523686   -0.043768   -0.000268
     11          8           0       -0.678685   -1.276289   -0.000316
     12          7           0       -1.673799    0.797241   -0.000595
     13          1           0        2.688087    2.123239   -0.000003
     14          1           0        1.363195   -1.961760   -0.000179
     15          1           0        3.720922   -2.700940   -0.000041
     16          1           0       -1.432203    1.779271   -0.000469
     17          6           0       -3.008316    0.467717   -0.000315
     18          6           0       -3.496563   -0.856181   -0.000229
     19          6           0       -4.866138   -1.099007    0.000011
     20          6           0       -5.773312   -0.045221    0.000157
     21          6           0       -5.318504    1.268277    0.000066
     22          6           0       -3.952500    1.516430   -0.000168
     23         17           0       -7.501013   -0.370868    0.000448
     24          1           0       -2.785752   -1.671490   -0.000343
     25          1           0       -5.230248   -2.122290    0.000078
     26          1           0       -6.026348    2.091752    0.000178
     27          1           0       -3.599679    2.545374   -0.000237
 ---------------------------------------------------------------------

 SCF Done:  E(RM062X) =  -2065.27443378     A.U. after    2 cycles

 The electronic state is 1-A.
 Alpha  occ. eigenvalues -- -102.58398-102.57066-102.57024 -19.47269 -14.67070
 Alpha  occ. eigenvalues --  -14.59083 -10.53494 -10.51438 -10.50976 -10.50505
 Alpha  occ. eigenvalues --  -10.49988 -10.47610 -10.47086 -10.47010 -10.46573
 Alpha  occ. eigenvalues --  -10.45262 -10.45118 -10.43794 -10.42682  -9.73060
 Alpha  occ. eigenvalues --   -9.71700  -9.71674  -7.45446  -7.44816  -7.44811
 Alpha  occ. eigenvalues --   -7.44097  -7.44069  -7.43452  -7.43446  -7.43430
 Alpha  occ. eigenvalues --   -7.43410  -1.02690  -0.93087  -0.90535  -0.89660
 Alpha  occ. eigenvalues --   -0.87138  -0.84705  -0.83077  -0.79863  -0.75890
 Alpha  occ. eigenvalues --   -0.72923  -0.71761  -0.68605  -0.61694  -0.60436
 Alpha  occ. eigenvalues --   -0.58253  -0.56652  -0.52785  -0.50730  -0.47536
 Alpha  occ. eigenvalues --   -0.45805  -0.44503  -0.43265  -0.42432  -0.41128
 Alpha  occ. eigenvalues --   -0.40545  -0.39490  -0.38607  -0.38035  -0.37633
 Alpha  occ. eigenvalues --   -0.37543  -0.36409  -0.34542  -0.34181  -0.32337
 Alpha  occ. eigenvalues --   -0.32041  -0.30902  -0.30655  -0.29038  -0.28864
 Alpha  occ. eigenvalues --   -0.28318  -0.26675  -0.25479  -0.22727  -0.22326
 Alpha  occ. eigenvalues --   -0.21952  -0.18930  -0.17633  -0.16121  -0.11324
 Alpha virt. eigenvalues --    0.08963   0.10044   0.10239   0.10596   0.11150
 Alpha virt. eigenvalues --    0.11505   0.11989   0.12107   0.12764   0.12866
 Alpha virt. eigenvalues --    0.13947   0.14505   0.14537   0.15196   0.15377

 Mulliken charges:
               1
     1  C   -0.229648
     2  C   -0.194721
     3  C   -0.622869
     4  C   -0.194129
     5  C    0.419734
     6  C   -0.414599
     7  Cl   0.109990
     8  Cl   0.140557
     9  N   -0.421879
    10  C    0.773659
    11  O   -0.671446
    12  N   -0.617569
    13  H    0.211742
    14  H    0.260351
    15  H    0.200629
    16  H    0.430021
    17  C   -0.138974
    18  C    0.848849
    19  C   -0.679499
    20  C    0.323740
    21  C   -0.547542
    22  C   -0.976081
    23  Cl   0.114840
    24  H    0.279133
    25  H    0.207090
    26  H    0.204237
    27  H    0.184382
 Sum of Mulliken charges =  -1.00000

 Dipole moment (field-independent basis, Debye):
    X=             -2.4746    Y=              1.3767    Z=              0.0004  Tot=              2.8318
 Quadrupole moment (field-independent basis, Debye-Ang):
   XX=           -234.3102   YY=           -133.7092   ZZ=           -139.9579
   XY=             -6.8403   XZ=             -0.0002   YZ=             -0.0002

  Exact polarizability: 413.882   1.605 202.954  -0.003   0.000 111.330
 Approx polarizability: 389.540   5.096 277.297  -0.005   0.000 147.221

                      1                      2                      3
                      A                      A                      A
 Frequencies --     14.1272                23.7107                50.4363
 Red. masses --     14.1954                 5.1008                11.9429
 Frc consts  --      0.0017                 0.0017                 0.0179
 IR Inten    --      0.2057                 1.3302                 0.4046

                      4                      5                      6
                      A                      A                      A
 Frequencies --     59.9455                62.7986               117.3653
 Red. masses --      9.9329                 7.9817                 8.0969
 Frc consts  --      0.0210                 0.0185                 0.0657
 IR Inten    --      0.0002                 3.5001                 0.6352

                      7                      8                      9
                      A                      A                      A
 Frequencies --    146.8133               149.0592               174.8163
 Red. masses --      7.2100                11.2180                13.8644
 Frc consts  --      0.0916                 0.1469                 0.2496
 IR Inten    --      0.7347                 2.1185                 0.9012

                     10                     11                     12
                      A                      A                      A
 Frequencies --    209.3397               214.2060               253.5711
 Red. masses --     21.4805                 8.2602                11.0238
 Frc consts  --      0.5546                 0.2233                 0.4176
 IR Inten    --      0.3033                 0.0022                 2.8453

                     13                     14                     15
                      A                      A                      A
 Frequencies --    308.7887               315.1178               330.7192
 Red. masses --      6.9580                10.4738                 7.1842
 Frc consts  --      0.3909                 0.6128                 0.4630
 IR Inten    --      1.7670                 6.2481                 0.9198

                     16                     17                     18
                      A                      A                      A
 Frequencies --    355.9440               389.1546               420.1084
 Red. masses --      8.8824                 7.0812                 3.1691
 Frc consts  --      0.6630                 0.6318                 0.3295
 IR Inten    --      7.5345                 0.0978                 0.0143

                     19                     20                     21
                      A                      A                      A
 Frequencies --    433.7494               453.8273               469.7445
 Red. masses --     10.1563                 3.1994                 6.4143
 Frc consts  --      1.1258                 0.3882                 0.8339
 IR Inten    --     42.2783                 3.1457                 1.3606

                     22                     23                     24
                      A                      A                      A
 Frequencies --    507.3547               511.1351               588.3816
 Red. masses --      2.6272                 9.1077                 1.4941
 Frc consts  --      0.3984                 1.4019                 0.3048
 IR Inten    --      8.8119                13.4185                35.0711

                     25                     26                     27
                      A                      A                      A
 Frequencies --    595.4023               639.9373               646.2759
 Red. masses --      2.3569                 7.2253                 7.8042
 Frc consts  --      0.4923                 1.7433                 1.9205
 IR Inten    --     40.7529                11.8855                39.1762

                     28                     29                     30
                      A                      A                      A
 Frequencies --    683.6967               684.5681               696.5336
 Red. masses --      7.4374                 3.1781                 3.6520
 Frc consts  --      2.0483                 0.8775                 1.0439
 IR Inten    --      8.2445                 4.8962                 3.6809

                     31                     32                     33
                      A                      A                      A
 Frequencies --    732.1209               775.2340               814.5715
 Red. masses --      7.9740                 9.1111                 8.4163
 Frc consts  --      2.5182                 3.2262                 3.2902
 IR Inten    --     37.6200                 9.6230                 8.4055

                     34                     35                     36
                      A                      A                      A
 Frequencies --    823.6743               844.6258               859.9485
 Red. masses --      1.4281                 1.4002                 1.4341
 Frc consts  --      0.5708                 0.5886                 0.6248
 IR Inten    --     31.1889                21.5123                40.7473

                     37                     38                     39
                      A                      A                      A
 Frequencies --    868.5501               885.2477               922.4973
 Red. masses --      5.9871                 1.6016                 6.3377
 Frc consts  --      2.6611                 0.7395                 3.1777
 IR Inten    --     14.8934                35.4519                22.4835

                     40                     41                     42
                      A                      A                      A
 Frequencies --    949.1754               981.5145               996.8631
 Red. masses --      1.2962                 1.2822                 1.2882
 Frc consts  --      0.6880                 0.7278                 0.7542
 IR Inten    --      0.0269                 0.2727                 0.9974

                     43                     44                     45
                      A                      A                      A
 Frequencies --   1016.2062              1017.6546              1047.2516
 Red. masses --      4.2044                 4.0238                 5.6927
 Frc consts  --      2.5581                 2.4552                 3.6785
 IR Inten    --     54.4716                22.7872               213.3751

                     46                     47                     48
                      A                      A                      A
 Frequencies --   1127.6533              1143.5333              1158.2182
 Red. masses --      2.3367                 1.3216                 1.9095
 Frc consts  --      1.7507                 1.0182                 1.5092
 IR Inten    --     26.3333                11.4137                36.4277

                     49                     50                     51
                      A                      A                      A
 Frequencies --   1169.6734              1200.2881              1236.5006
 Red. masses --      1.3075                 1.1678                 2.6730
 Frc consts  --      1.0539                 0.9913                 2.4079
 IR Inten    --     28.1027               115.1847               346.6040

                     52                     53                     54
                      A                      A                      A
 Frequencies --   1269.9774              1292.6160              1308.4288
 Red. masses --      1.4816                 2.5994                 8.2702
 Frc consts  --      1.4079                 2.5590                 8.3419
 IR Inten    --    158.5291                 7.7744                12.8478

                     55                     56                     57
                      A                      A                      A
 Frequencies --   1322.0262              1348.0063              1413.6146
 Red. masses --      1.5735                 4.2315                 3.9784
 Frc consts  --      1.6203                 4.5303                 4.6840
 IR Inten    --      0.0915               791.4866               633.6972

                     58                     59                     60
                      A                      A                      A
 Frequencies --   1435.4245              1462.7648              1514.6294
 Red. masses --      3.0819                 4.5812                 2.5405
 Frc consts  --      3.7414                 5.7753                 3.4338
 IR Inten    --    409.6721               315.9969              1459.5428

                     61                     62                     63
                      A                      A                      A
 Frequencies --   1528.7188              1567.6241              1600.4817
 Red. masses --      2.5767                 3.8005                 7.8665
 Frc consts  --      3.5478                 5.5026                11.8723
 IR Inten    --    345.8676               149.7363                42.7553

                     64                     65                     66
                      A                      A                      A
 Frequencies --   1645.8846              1647.6279              1679.5793
 Red. masses --      6.4340                 6.8732                 6.1605
 Frc consts  --     10.2691                10.9933                10.2393
 IR Inten    --    618.6520                20.9783                34.9884

                     67                     68                     69
                      A                      A                      A
 Frequencies --   1725.9167              3202.8133              3216.9569
 Red. masses --      7.8174                 1.0885                 1.0906
 Frc consts  --     13.7200                 6.5789                 6.6497
 IR Inten    --    659.1251                18.1620                14.5567

                     70                     71                     72
                      A                      A                      A
 Frequencies --   3228.8035              3233.3728              3242.9818
 Red. masses --      1.0913                 1.0940                 1.0909
 Frc consts  --      6.7032                 6.7389                 6.7595
 IR Inten    --      9.8814                11.0654                 1.9021

                     73                     74                     75
                      A                      A                      A
 Frequencies --   3293.7494              3294.1822              3647.0359
 Red. masses --      1.0915                 1.0915                 1.0767
 Frc consts  --      6.9767                 6.9789                 8.4379
 IR Inten    --     18.1050                 6.2041                36.6692

 - Thermochemistry -
 -------------------
 Temperature   298.150 Kelvin.  Pressure   1.00000 Atm.
 Atom     1 has atomic number  6 and mass  12.00000

 Molecular mass:   312.97022 amu.
 Principal axes and moments of inertia in atomic units:
                           1         2         3
     Eigenvalues --  1464.91701********************
           X            1.00000  -0.00315   0.00000
           Y            0.00315   1.00000  -0.00000
           Z           -0.00000   0.00000   1.00000
 This molecule is an asymmetric top.
 Rotational symmetry number  1.
 Warning -- assumption of classical behavior for rotation
           may cause significant error
 Rotational temperatures (Kelvin)      0.05913     0.00357     0.00336
 Rotational constants (GHZ):           1.23198     0.07432     0.07009
 Zero-point vibrational energy     485688.9 (Joules/Mol)
                                  116.08244 (Kcal/Mol)
 Warning -- explicit consideration of  25 degrees of freedom as
           vibrations may cause significant error
 Vibrational temperatures:     20.33    34.11    72.57    86.25    90.35
          (Kelvin)            168.86   211.23   214.46   251.52   301.19
                              308.19   364.83   444.28   453.38   475.83
                              512.12   559.91   604.44   624.07   652.96
                              675.86   729.97   735.41   846.55   856.65
                              920.73   929.85   983.69   984.94  1002.16
                             1053.36  1115.39  1171.99  1185.08  1215.23
                             1237.27  1249.65  1273.67  1327.27  1365.65
                             1412.18  1434.26  1462.09  1464.18  1506.76
                             1622.44  1645.29  1666.42  1682.90  1726.94
                             1779.05  1827.21  1859.78  1882.53  1902.10
                             1939.48  2033.87  2065.25  2104.59  2179.21
                             2199.48  2255.46  2302.73  2368.06  2370.57
                             2416.54  2483.21  4608.13  4628.48  4645.52
                             4652.10  4665.92  4738.96  4739.59  5247.26

 Zero-point correction=                           0.184989 (Hartree/Particle)
 Thermal correction to Energy=                    0.201645
 Thermal correction to Enthalpy=                  0.202589
 Thermal correction to Gibbs Free Energy=         0.136904
 Sum of electronic and zero-point Energies=          -2065.089445
 Sum of electronic and thermal Energies=             -2065.072789
 Sum of electronic and thermal Enthalpies=           -2065.071845
 Sum of electronic and thermal Free Energies=        -2065.137530

                     E (Thermal)             CV                S
                      KCal/Mol        Cal/Mol-Kelvin    Cal/Mol-Kelvin
 Total                  126.534             61.736            138.246
 Electronic               0.000              0.000              0.000
 Translational            0.889              2.981             43.119
 Rotational               0.889              2.981             35.170
 Vibrational            124.757             55.775             59.958
 Vibration     1          0.593              1.986              7.325
 Vibration     2          0.593              1.985              6.296
 Vibration     3          0.595              1.977              4.800
 Vibration     4          0.597              1.973              4.459
 Vibration     5          0.597              1.972              4.367
 Vibration     6          0.608              1.935              3.143
 Vibration     7          0.617              1.906              2.713
 Vibration     8          0.618              1.904              2.684
 Vibration     9          0.627              1.873              2.383
 Vibration    10          0.642              1.826              2.049
 Vibration    11          0.644              1.819              2.008
 Vibration    12          0.665              1.757              1.706
 Vibration    13          0.698              1.657              1.369
 Vibration    14          0.702              1.645              1.335
 Vibration    15          0.713              1.614              1.257
 Vibration    16          0.731              1.563              1.140
 Vibration    17          0.757              1.493              1.003
 Vibration    18          0.783              1.427              0.892
 Vibration    19          0.794              1.397              0.846
 Vibration    20          0.812              1.352              0.784
 Vibration    21          0.827              1.317              0.738
 Vibration    22          0.863              1.234              0.640
 Vibration    23          0.866              1.225              0.631
 Vibration    24          0.946              1.057              0.470
 Vibration    25          0.953              1.042              0.458

 Optimization completed.
    -- Stationary point found.
 Normal termination of Gaussian 09 at Mon Oct  8 16:52:29 2018.
