 Gaussian 09, Revision E.01,

 ----------------------------------------------------------------------
 # M062X/Gen 6D SCF=Tight INT(grid=ultrafine) OPT IOP(2/17=4) maxdisk=2
 684354560
 ----------------------------------------------------------------------

 -----------------------------
 4SulfOxyCf3.M062X_6-31pGd_opt
 -----------------------------
 Symbolic Z-matrix:
 Charge =  0 Multiplicity = 1

 SCF Done:  E(RM062X) =  -1459.35091069     A.U. after   18 cycles
 SCF Done:  E(RM062X) =  -1459.40184967     A.U. after   15 cycles
 SCF Done:  E(RM062X) =  -1459.42600873     A.U. after   15 cycles
 SCF Done:  E(RM062X) =  -1459.43007009     A.U. after   15 cycles
 SCF Done:  E(RM062X) =  -1459.43257037     A.U. after   16 cycles
 SCF Done:  E(RM062X) =  -1459.43492287     A.U. after   16 cycles
 SCF Done:  E(RM062X) =  -1459.43520330     A.U. after   14 cycles
 SCF Done:  E(RM062X) =  -1459.43523771     A.U. after   12 cycles
 SCF Done:  E(RM062X) =  -1459.43524209     A.U. after   11 cycles
 SCF Done:  E(RM062X) =  -1459.43524244     A.U. after   11 cycles
 SCF Done:  E(RM062X) =  -1459.43563252     A.U. after   12 cycles
 SCF Done:  E(RM062X) =  -1459.43563788     A.U. after   12 cycles
 SCF Done:  E(RM062X) =  -1459.43563987     A.U. after   11 cycles
 SCF Done:  E(RM062X) =  -1459.43564051     A.U. after   10 cycles
 SCF Done:  E(RM062X) =  -1459.43564087     A.U. after   10 cycles
 SCF Done:  E(RM062X) =  -1459.43564142     A.U. after   10 cycles
 SCF Done:  E(RM062X) =  -1459.43564205     A.U. after   10 cycles
 SCF Done:  E(RM062X) =  -1459.43564203     A.U. after    9 cycles
 Optimization completed.
    -- Stationary point found.
 Normal termination of Gaussian 09 at Tue Oct 30 14:54:14 2018.
 Gaussian 09:  ES64L-G09RevE.01 30-Nov-2015

 ----------------------------------------------------------------------
 # M062X/Gen 6D SCF=Tight INT(grid=ultrafine) OPT IOP(2/17=4) Freq=Nora
 man maxdisk=2684354560 geom=check guess=read IOP(2/17=4)
 ----------------------------------------------------------------------

 -----------------------------
 4SulfOxyCf3.M062X_6-31pGd_opt
 -----------------------------
 Structure from the checkpoint file:  "4SulfOxyCf3.M062X_6-31pGd_opt.chk"
 Charge =  0 Multiplicity = 1

 SCF Done:  E(RM062X) =  -1459.43564203     A.U. after    1 cycles
 Optimization completed.
    -- Stationary point found.
 Normal termination of Gaussian 09 at Tue Oct 30 14:55:22 2018.

 ----------------------------------------------------------------------
 #N Geom=AllCheck Guess=TCheck SCRF=Check Test GenChk RM062X/ChkBas Fre
 q
 ----------------------------------------------------------------------

 Structure from the checkpoint file:  "4SulfOxyCf3.M062X_6-31pGd_opt.chk"
 -----------------------------
 4SulfOxyCf3.M062X_6-31pGd_opt
 -----------------------------
 Charge =  0 Multiplicity = 1

                         Standard orientation:
 ---------------------------------------------------------------------
 Center     Atomic      Atomic             Coordinates (Angstroms)
 Number     Number       Type             X           Y           Z
 ---------------------------------------------------------------------
      1          6           0       -8.244596   -0.563508    0.216316
      2          6           0       -6.990935    0.262595    0.495148
      3          6           0       -5.751231   -0.383679   -0.109308
      4          7           0       -4.567836    0.421597    0.169434
      5          6           0       -3.328125   -0.104029   -0.092578
      6          8           0       -3.154884   -1.258163   -0.438904
      7          7           0       -2.291228    0.806141    0.113662
      8          6           0       -0.928193    0.604584   -0.094823
      9          6           0       -0.398672   -0.551274   -0.693917
     10          6           0       -0.064855    1.640775    0.306828
     11          6           0        1.301713    1.537564    0.118905
     12          6           0        1.811248    0.383903   -0.477329
     13          6           0        0.973114   -0.652979   -0.883049
     14          1           0       -9.130598   -0.095133    0.653406
     15          1           0       -8.152214   -1.568946    0.640077
     16          1           0       -8.416083   -0.668078   -0.860228
     17          1           0       -6.843043    0.376342    1.575584
     18          1           0       -7.118569    1.272569    0.081041
     19          1           0       -5.877955   -0.522660   -1.192251
     20          1           0       -5.582004   -1.373390    0.323367
     21          1           0       -4.684658    1.425720    0.110768
     22          1           0       -2.533536    1.673002    0.575703
     23          1           0       -1.057726   -1.350515   -1.001167
     24          1           0       -0.476376    2.537324    0.763865
     25          1           0        1.971390    2.338721    0.416304
     26         16           0        3.549098    0.237123   -0.712237
     27          8           0        4.160567    1.556298   -0.680139
     28          8           0        3.827433   -0.738188   -1.753354
     29          1           0        1.396732   -1.534079   -1.355943
     30          6           0        4.096983   -0.579573    0.868000
     31          9           0        5.411019   -0.750267    0.836331
     32          9           0        3.777227    0.184715    1.910148
     33          9           0        3.501632   -1.761655    1.002145
 ---------------------------------------------------------------------

 SCF Done:  E(RM062X) =  -1459.43564203     A.U. after    1 cycles

 The electronic state is 1-A.
 Alpha  occ. eigenvalues --  -90.16591 -25.32905 -25.32865 -25.32761 -19.66292
 Alpha  occ. eigenvalues --  -19.66273 -19.63663 -14.83248 -14.81027 -10.83769
 Alpha  occ. eigenvalues --  -10.71058 -10.64241 -10.60434 -10.59943 -10.59806
 Alpha  occ. eigenvalues --  -10.59445 -10.58951 -10.57737 -10.56995 -10.55558
 Alpha  occ. eigenvalues --   -8.48006  -6.40149  -6.40134  -6.40064  -1.49770
 Alpha  occ. eigenvalues --   -1.40461  -1.40431  -1.25408  -1.20445  -1.14893
 Alpha  occ. eigenvalues --   -1.08942  -1.05482  -0.99430  -0.91210  -0.89446
 Alpha  occ. eigenvalues --   -0.88293  -0.86044  -0.80928  -0.78087  -0.74802
 Alpha  occ. eigenvalues --   -0.73746  -0.71870  -0.71805  -0.70810  -0.69710
 Alpha  occ. eigenvalues --   -0.67411  -0.65938  -0.64093  -0.61019  -0.59605
 Alpha  occ. eigenvalues --   -0.59189  -0.58079  -0.56622  -0.55995  -0.55740
 Alpha  occ. eigenvalues --   -0.55618  -0.55576  -0.54626  -0.54231  -0.53721
 Alpha  occ. eigenvalues --   -0.53541  -0.52971  -0.51619  -0.49961  -0.49389
 Alpha  occ. eigenvalues --   -0.48470  -0.46980  -0.44571  -0.44287  -0.42730
 Alpha  occ. eigenvalues --   -0.42388  -0.42172  -0.41946  -0.40760  -0.40092
 Alpha  occ. eigenvalues --   -0.37880  -0.36811  -0.34611  -0.34091  -0.30345
 Alpha virt. eigenvalues --   -0.03127  -0.01762  -0.00876   0.01265   0.01929
 Alpha virt. eigenvalues --    0.02401   0.02907   0.03084   0.03867   0.04220
 Alpha virt. eigenvalues --    0.04387   0.04747   0.05599   0.05880   0.06204

 Mulliken charges:
               1
     1  C   -0.718464
     2  C   -0.313976
     3  C   -0.201512
     4  N   -0.588520
     5  C    0.779199
     6  O   -0.559172
     7  N   -0.650162
     8  C    0.266597
     9  C    0.224351
    10  C   -1.299918
    11  C   -0.037745
    12  C   -0.742117
    13  C    0.200018
    14  H    0.216509
    15  H    0.216693
    16  H    0.215367
    17  H    0.228035
    18  H    0.204147
    19  H    0.219200
    20  H    0.244879
    21  H    0.387459
    22  H    0.413451
    23  H    0.281787
    24  H    0.205901
    25  H    0.262892
    26  S    1.066286
    27  O   -0.452752
    28  O   -0.427259
    29  H    0.263917
    30  C    0.872329
    31  F   -0.266990
    32  F   -0.257967
    33  F   -0.252466
 Sum of Mulliken charges =  -0.00000

 Dipole moment (field-independent basis, Debye):
    X=             -8.6033    Y=              3.3846    Z=              2.4048  Tot=              9.5528
 Quadrupole moment (field-independent basis, Debye-Ang):
   XX=           -120.0036   YY=           -121.0155   ZZ=           -128.8770
   XY=            -14.3429   XZ=              5.5131   YZ=              2.3791

  Exact polarizability: 262.959   1.677 152.721  -7.848  15.108 123.936
 Approx polarizability: 248.239   1.240 214.685  -9.953  28.730 162.256

                      1                      2                      3
                      A                      A                      A
 Frequencies --     15.5351                29.7657                36.7424
 Red. masses --      5.6111                 3.7196                11.7335
 Frc consts  --      0.0008                 0.0019                 0.0093
 IR Inten    --      0.2431                 3.8711                 0.0118

                      4                      5                      6
                      A                      A                      A
 Frequencies --     44.7114                53.3413                58.5953
 Red. masses --      5.8300                 2.9831                 5.1583
 Frc consts  --      0.0069                 0.0050                 0.0104
 IR Inten    --      1.5984                 0.2509                 0.8085

                      7                      8                      9
                      A                      A                      A
 Frequencies --     66.3220                82.5793               130.5580
 Red. masses --      4.1962                 3.1575                 6.1369
 Frc consts  --      0.0109                 0.0127                 0.0616
 IR Inten    --      3.6253                 1.2397                 5.0258

                     10                     11                     12
                      A                      A                      A
 Frequencies --    150.1361               186.4135               190.0772
 Red. masses --      6.2586                 7.2191                 3.5753
 Frc consts  --      0.0831                 0.1478                 0.0761
 IR Inten    --      3.2806                 3.4234                 1.5157

                     13                     14                     15
                      A                      A                      A
 Frequencies --    196.0477               216.9597               238.9082
 Red. masses --     10.2278                 4.2630                 1.1354
 Frc consts  --      0.2316                 0.1182                 0.0382
 IR Inten    --      0.8492                 5.6955                 0.0430

                     16                     17                     18
                      A                      A                      A
 Frequencies --    250.8127               305.0451               309.3134
 Red. masses --      9.1781                 7.9022                12.1048
 Frc consts  --      0.3402                 0.4332                 0.6823
 IR Inten    --      8.6221                 0.0735                 1.0464

                     19                     20                     21
                      A                      A                      A
 Frequencies --    329.1729               340.3165               350.9829
 Red. masses --      5.9311                 3.7118                 4.6233
 Frc consts  --      0.3786                 0.2533                 0.3356
 IR Inten    --      0.6010                41.0871                16.6142

                     22                     23                     24
                      A                      A                      A
 Frequencies --    371.2133               380.1624               420.4911
 Red. masses --      3.0632                 2.4883                 3.0286
 Frc consts  --      0.2487                 0.2119                 0.3155
 IR Inten    --     37.6080                11.9404                 0.1171

                     25                     26                     27
                      A                      A                      A
 Frequencies --    446.6497               484.2796               510.2466
 Red. masses --      7.8920                 3.3861                 1.6386
 Frc consts  --      0.9276                 0.4679                 0.2513
 IR Inten    --      1.8329                31.2107               123.8003

                     28                     29                     30
                      A                      A                      A
 Frequencies --    513.8693               529.4023               558.8851
 Red. masses --      2.5714                 6.5699                17.1579
 Frc consts  --      0.4001                 1.0849                 3.1576
 IR Inten    --     26.5292                 7.8818                 0.0203

                     31                     32                     33
                      A                      A                      A
 Frequencies --    580.2933               612.0039               637.4982
 Red. masses --      8.0986                 8.5581                 7.0129
 Frc consts  --      1.6068                 1.8886                 1.6792
 IR Inten    --     58.3178               181.3867                 0.8999

                     34                     35                     36
                      A                      A                      A
 Frequencies --    713.1884               728.3372               753.4978
 Red. masses --      6.5343                 3.9211                 1.8417
 Frc consts  --      1.9582                 1.2255                 0.6161
 IR Inten    --    107.3320                10.0787                14.1300

                     37                     38                     39
                      A                      A                      A
 Frequencies --    765.9098               783.2131               793.7724
 Red. masses --      2.0045                12.3679                 6.1559
 Frc consts  --      0.6928                 4.4700                 2.2852
 IR Inten    --      3.9683                11.1223                13.6824

                     40                     41                     42
                      A                      A                      A
 Frequencies --    844.5372               871.7637               875.6376
 Red. masses --      1.4222                 3.9993                 1.5649
 Frc consts  --      0.5976                 1.7907                 0.7070
 IR Inten    --     19.2873                 6.1398                25.0164

                     43                     44                     45
                      A                      A                      A
 Frequencies --    899.9963               932.8565               986.6857
 Red. masses --      1.1826                 1.6966                 1.3228
 Frc consts  --      0.5644                 0.8699                 0.7587
 IR Inten    --      2.4639                 4.6227                 0.6380

                     46                     47                     48
                      A                      A                      A
 Frequencies --   1015.0045              1026.8188              1044.5644
 Red. masses --      1.3280                 3.6562                 4.1695
 Frc consts  --      0.8061                 2.2713                 2.6804
 IR Inten    --      0.7341                 7.8375                 3.6029

                     49                     50                     51
                      A                      A                      A
 Frequencies --   1079.0173              1107.6334              1144.6333
 Red. masses --      2.6748                 4.1867                 2.6992
 Frc consts  --      1.8348                 3.0263                 2.0836
 IR Inten    --      4.2230               113.0727                 4.6204

                     52                     53                     54
                      A                      A                      A
 Frequencies --   1160.6692              1164.6453              1166.0130
 Red. masses --      1.5863                 2.4977                 2.7979
 Frc consts  --      1.2591                 1.9961                 2.2413
 IR Inten    --     88.2030                29.7626               259.0467

                     55                     56                     57
                      A                      A                      A
 Frequencies --   1181.5331              1216.9115              1237.3572
 Red. masses --      1.7283                 1.4253                 1.9874
 Frc consts  --      1.4216                 1.2436                 1.7928
 IR Inten    --      0.8945               168.6007               349.7996

                     58                     59                     60
                      A                      A                      A
 Frequencies --   1242.1400              1275.5451              1282.3992
 Red. masses --      3.6006                13.0285                 1.2978
 Frc consts  --      3.2731                12.4892                 1.2575
 IR Inten    --     39.9289               131.8839               109.7918

                     61                     62                     63
                      A                      A                      A
 Frequencies --   1294.3910              1306.1149              1328.5909
 Red. masses --     12.9540                 2.2710                 1.1390
 Frc consts  --     12.7875                 2.2826                 1.1846
 IR Inten    --    294.1205                 0.2272                14.2481

                     64                     65                     66
                      A                      A                      A
 Frequencies --   1339.1130              1347.0687              1367.6023
 Red. masses --      1.4226                 1.3594                 6.3729
 Frc consts  --      1.5031                 1.4533                 7.0227
 IR Inten    --     12.8986                 1.4885               136.9655

                     67                     68                     69
                      A                      A                      A
 Frequencies --   1383.6400              1426.3327              1438.2922
 Red. masses --     12.8877                 1.5252                 1.3118
 Frc consts  --     14.5369                 1.8281                 1.5989
 IR Inten    --    261.8221                 0.1525                 2.1023

                     70                     71                     72
                      A                      A                      A
 Frequencies --   1457.9227              1516.3797              1524.9360
 Red. masses --      2.9098                 1.0593                 1.0467
 Frc consts  --      3.6440                 1.4351                 1.4341
 IR Inten    --     71.4256                 9.5939                18.2196

                     73                     74                     75
                      A                      A                      A
 Frequencies --   1527.4920              1535.7081              1542.4699
 Red. masses --      1.0748                 1.4254                 1.2684
 Frc consts  --      1.4776                 1.9807                 1.7780
 IR Inten    --      2.4567                93.0611               138.1772

                     76                     77                     78
                      A                      A                      A
 Frequencies --   1557.4279              1580.5466              1664.0602
 Red. masses --      2.3743                 2.5260                 5.1827
 Frc consts  --      3.3932                 3.7179                 8.4555
 IR Inten    --     79.8409              1069.3120               104.2390

                     79                     80                     81
                      A                      A                      A
 Frequencies --   1679.8341              1830.2858              3057.4163
 Red. masses --      5.7230                 8.8256                 1.0642
 Frc consts  --      9.5150                17.4194                 5.8612
 IR Inten    --    101.5270               274.1525                20.6788

                     82                     83                     84
                      A                      A                      A
 Frequencies --   3060.3912              3081.0041              3107.7852
 Red. masses --      1.0720                 1.0364                 1.0957
 Frc consts  --      5.9155                 5.7966                 6.2354
 IR Inten    --     36.4929                29.5228                15.4918

                     85                     86                     87
                      A                      A                      A
 Frequencies --   3146.0112              3153.3423              3161.6779
 Red. masses --      1.0973                 1.1017                 1.1019
 Frc consts  --      6.3987                 6.4547                 6.4897
 IR Inten    --      0.7701                46.9521                26.7809

                     88                     89                     90
                      A                      A                      A
 Frequencies --   3212.1379              3243.2318              3248.2593
 Red. masses --      1.0904                 1.0921                 1.0942
 Frc consts  --      6.6285                 6.7680                 6.8019
 IR Inten    --     10.2207                 1.6982                 2.6432

                     91                     92                     93
                      A                      A                      A
 Frequencies --   3306.7801              3623.4261              3634.4768
 Red. masses --      1.0927                 1.0775                 1.0770
 Frc consts  --      7.0400                 8.3351                 8.3824
 IR Inten    --     12.4921                17.6083                42.0964

 - Thermochemistry -
 -------------------
 Temperature   298.150 Kelvin.  Pressure   1.00000 Atm.
 Atom     1 has atomic number  6 and mass  12.00000

 Molecular mass:   310.05990 amu.
 Principal axes and moments of inertia in atomic units:
                           1         2         3
     Eigenvalues --  1750.13173********************
           X            0.99998   0.00478  -0.00473
           Y           -0.00384   0.98350   0.18089
           Z            0.00552  -0.18087   0.98349
 This molecule is an asymmetric top.
 Rotational symmetry number  1.
 Warning -- assumption of classical behavior for rotation
           may cause significant error
 Rotational temperatures (Kelvin)      0.04949     0.00454     0.00450
 Rotational constants (GHZ):           1.03120     0.09461     0.09366
 Zero-point vibrational energy     649606.7 (Joules/Mol)
                                  155.25973 (Kcal/Mol)
 Warning -- explicit consideration of  32 degrees of freedom as
           vibrations may cause significant error
 Vibrational temperatures:     22.35    42.83    52.86    64.33    76.75
          (Kelvin)             84.31    95.42   118.81   187.84   216.01
                              268.21   273.48   282.07   312.16   343.74
                              360.86   438.89   445.03   473.61   489.64
                              504.99   534.09   546.97   604.99   642.63
                              696.77   734.13   739.34   761.69   804.11
                              834.91   880.54   917.22  1026.12  1047.91
                             1084.11  1101.97  1126.87  1142.06  1215.10
                             1254.27  1259.85  1294.89  1342.17  1419.62
                             1460.36  1477.36  1502.89  1552.46  1593.64
                             1646.87  1669.94  1675.66  1677.63  1699.96
                             1750.86  1780.28  1787.16  1835.22  1845.08
                             1862.34  1879.21  1911.54  1926.68  1938.13
                             1967.67  1990.75  2052.17  2069.38  2097.62
                             2181.73  2194.04  2197.72  2209.54  2219.27
                             2240.79  2274.05  2394.21  2416.90  2633.37
                             4398.93  4403.21  4432.87  4471.40  4526.40
                             4536.95  4548.94  4621.54  4666.28  4673.51
                             4757.71  5213.30  5229.19

 Zero-point correction=                           0.247422 (Hartree/Particle)
 Thermal correction to Energy=                    0.267536
 Thermal correction to Enthalpy=                  0.268480
 Thermal correction to Gibbs Free Energy=         0.195113
 Sum of electronic and zero-point Energies=          -1459.188220
 Sum of electronic and thermal Energies=             -1459.168107
 Sum of electronic and thermal Enthalpies=           -1459.167162
 Sum of electronic and thermal Free Energies=        -1459.240529

                     E (Thermal)             CV                S
                      KCal/Mol        Cal/Mol-Kelvin    Cal/Mol-Kelvin
 Total                  167.881             72.280            154.413
 Electronic               0.000              0.000              0.000
 Translational            0.889              2.981             43.091
 Rotational               0.889              2.981             34.819
 Vibrational            166.104             66.318             76.503
 Vibration     1          0.593              1.986              7.136
 Vibration     2          0.594              1.984              5.845
 Vibration     3          0.594              1.982              5.427
 Vibration     4          0.595              1.980              5.039
 Vibration     5          0.596              1.976              4.690
 Vibration     6          0.596              1.974              4.504
 Vibration     7          0.598              1.970              4.260
 Vibration     8          0.600              1.961              3.829
 Vibration     9          0.612              1.923              2.938
 Vibration    10          0.618              1.903              2.671
 Vibration    11          0.632              1.858              2.263
 Vibration    12          0.633              1.854              2.227
 Vibration    13          0.636              1.845              2.170
 Vibration    14          0.646              1.815              1.984
 Vibration    15          0.657              1.781              1.811
 Vibration    16          0.663              1.761              1.725
 Vibration    17          0.696              1.664              1.389
 Vibration    18          0.699              1.656              1.366
 Vibration    19          0.712              1.617              1.264
 Vibration    20          0.720              1.595              1.211
 Vibration    21          0.728              1.573              1.162
 Vibration    22          0.743              1.531              1.075
 Vibration    23          0.750              1.512              1.039
 Vibration    24          0.783              1.426              0.890
 Vibration    25          0.806              1.368              0.806
 Vibration    26          0.840              1.285              0.699
 Vibration    27          0.865              1.227              0.633
 Vibration    28          0.869              1.219              0.624
 Vibration    29          0.884              1.185              0.589
 Vibration    30          0.914              1.120              0.526
 Vibration    31          0.937              1.074              0.485
 Vibration    32          0.971              1.006              0.429

 Optimization completed.
    -- Stationary point found.
 Normal termination of Gaussian 09 at Tue Oct 30 16:04:04 2018.
