 Gaussian 09, Revision E.01,

 ----------------------------------------------------------------------
 # M062X/Gen 6D SCF=Tight INT(grid=ultrafine) OPT IOP(2/17=4) SCRF=(SMD
 ,Solvent=h2o) maxdisk=2684354560
 ----------------------------------------------------------------------

 -----------------------------------
 4SulfOxyCf3.M062X_6-31pGd_opt_water
 -----------------------------------
 Symbolic Z-matrix:
 Charge =  0 Multiplicity = 1

 SCF Done:  E(RM062X) =  -1459.38943049     A.U. after   16 cycles
 SCF Done:  E(RM062X) =  -1459.43584777     A.U. after   15 cycles
 SCF Done:  E(RM062X) =  -1459.45587211     A.U. after   14 cycles
 SCF Done:  E(RM062X) =  -1459.45873511     A.U. after   15 cycles
 SCF Done:  E(RM062X) =  -1459.46128403     A.U. after   16 cycles
 SCF Done:  E(RM062X) =  -1459.46260425     A.U. after   16 cycles
 SCF Done:  E(RM062X) =  -1459.46297328     A.U. after   12 cycles
 SCF Done:  E(RM062X) =  -1459.46301511     A.U. after   12 cycles
 SCF Done:  E(RM062X) =  -1459.46303709     A.U. after   12 cycles
 SCF Done:  E(RM062X) =  -1459.46307615     A.U. after   11 cycles
 SCF Done:  E(RM062X) =  -1459.46307597     A.U. after    9 cycles
 SCF Done:  E(RM062X) =  -1459.46307643     A.U. after    9 cycles
 SCF Done:  E(RM062X) =  -1459.46307686     A.U. after    9 cycles
 SCF Done:  E(RM062X) =  -1459.46307693     A.U. after    9 cycles
 SCF Done:  E(RM062X) =  -1459.46307672     A.U. after    8 cycles
 SCF Done:  E(RM062X) =  -1459.46307640     A.U. after    8 cycles
 SCF Done:  E(RM062X) =  -1459.46307591     A.U. after    8 cycles
 SCF Done:  E(RM062X) =  -1459.46307570     A.U. after    8 cycles
 Optimization completed.
    -- Stationary point found.
 Normal termination of Gaussian 09 at Tue Oct 30 12:06:17 2018.
 Gaussian 09:  ES64L-G09RevE.01 30-Nov-2015

 ----------------------------------------------------------------------
 # M062X/Gen 6D SCF=Tight INT(grid=ultrafine) OPT IOP(2/17=4) SCRF=(SMD
 ,Solvent=h2o) Freq=Noraman maxdisk=2684354560 geom=check guess=read IO
 P(2/17=4)
 ----------------------------------------------------------------------

 -----------------------------------
 4SulfOxyCf3.M062X_6-31pGd_opt_water
 -----------------------------------
 Structure from the checkpoint file:  "4SulfOxyCf3.M062X_6-31pGd_opt_water.chk"
 Charge =  0 Multiplicity = 1

 SCF Done:  E(RM062X) =  -1459.46307570     A.U. after    1 cycles
 Optimization completed.
    -- Stationary point found.
 Normal termination of Gaussian 09 at Tue Oct 30 12:07:45 2018.

 ----------------------------------------------------------------------
 #N Geom=AllCheck Guess=TCheck SCRF=Check Test GenChk RM062X/ChkBas Fre
 q
 ----------------------------------------------------------------------

 Structure from the checkpoint file:  "4SulfOxyCf3.M062X_6-31pGd_opt_water.chk"
 -----------------------------------
 4SulfOxyCf3.M062X_6-31pGd_opt_water
 -----------------------------------
 Charge =  0 Multiplicity = 1

                         Standard orientation:
 ---------------------------------------------------------------------
 Center     Atomic      Atomic             Coordinates (Angstroms)
 Number     Number       Type             X           Y           Z
 ---------------------------------------------------------------------
      1          6           0       -8.256758   -0.463270    0.270836
      2          6           0       -6.986947    0.370827    0.404610
      3          6           0       -5.755958   -0.442987    0.036139
      4          7           0       -4.552889    0.368278    0.179841
      5          6           0       -3.338074   -0.130927   -0.117746
      6          8           0       -3.176199   -1.286091   -0.532740
      7          7           0       -2.289401    0.756244    0.079573
      8          6           0       -0.936014    0.554072   -0.140629
      9          6           0       -0.385175   -0.642761   -0.637289
     10          6           0       -0.084957    1.638527    0.160787
     11          6           0        1.279745    1.541093   -0.023046
     12          6           0        1.805887    0.344276   -0.522017
     13          6           0        0.985124   -0.743589   -0.824449
     14          1           0       -9.141112    0.124995    0.532696
     15          1           0       -8.223688   -1.335767    0.932534
     16          1           0       -8.382500   -0.823077   -0.756258
     17          1           0       -6.884129    0.735220    1.434117
     18          1           0       -7.045415    1.251236   -0.246966
     19          1           0       -5.832172   -0.796422   -0.998533
     20          1           0       -5.678806   -1.325743    0.681876
     21          1           0       -4.647500    1.320414    0.516325
     22          1           0       -2.536140    1.674201    0.438616
     23          1           0       -1.019706   -1.482703   -0.876475
     24          1           0       -0.511519    2.562666    0.539856
     25          1           0        1.925970    2.381577    0.210585
     26         16           0        3.532177    0.188208   -0.715479
     27          8           0        4.167582    1.501154   -0.806869
     28          8           0        3.859123   -0.866427   -1.673129
     29          1           0        1.408972   -1.665984   -1.210058
     30          6           0        4.101749   -0.487342    0.921391
     31          9           0        5.418963   -0.646953    0.881285
     32          9           0        3.788930    0.359287    1.894829
     33          9           0        3.522458   -1.659022    1.153201
 ---------------------------------------------------------------------

 SCF Done:  E(RM062X) =  -1459.46307570     A.U. after    1 cycles

 The electronic state is 1-A.
 Alpha  occ. eigenvalues --  -90.18064 -25.33854 -25.33843 -25.33837 -19.67994
 Alpha  occ. eigenvalues --  -19.67980 -19.62825 -14.81347 -14.79164 -10.84951
 Alpha  occ. eigenvalues --  -10.69964 -10.63234 -10.60333 -10.58893 -10.58877
 Alpha  occ. eigenvalues --  -10.57842 -10.57250 -10.56840 -10.54254 -10.52990
 Alpha  occ. eigenvalues --   -8.49500  -6.41664  -6.41619  -6.41530  -1.50815
 Alpha  occ. eigenvalues --   -1.41503  -1.41494  -1.26844  -1.18946  -1.16286
 Alpha  occ. eigenvalues --   -1.07343  -1.03815  -0.98754  -0.90678  -0.88246
 Alpha  occ. eigenvalues --   -0.87344  -0.86125  -0.80372  -0.77540  -0.74048
 Alpha  occ. eigenvalues --   -0.73275  -0.72930  -0.72614  -0.68821  -0.68718
 Alpha  occ. eigenvalues --   -0.66943  -0.64022  -0.63250  -0.61501  -0.60601
 Alpha  occ. eigenvalues --   -0.60016  -0.57755  -0.56920  -0.56681  -0.56468
 Alpha  occ. eigenvalues --   -0.56150  -0.54723  -0.54554  -0.53959  -0.53144
 Alpha  occ. eigenvalues --   -0.52652  -0.51825  -0.50442  -0.48806  -0.47908
 Alpha  occ. eigenvalues --   -0.46760  -0.45455  -0.44092  -0.43995  -0.43095
 Alpha  occ. eigenvalues --   -0.42065  -0.41770  -0.40389  -0.40001  -0.39231
 Alpha  occ. eigenvalues --   -0.39114  -0.36216  -0.33541  -0.33120  -0.28942
 Alpha virt. eigenvalues --   -0.03097   0.00100   0.01227   0.02088   0.03153
 Alpha virt. eigenvalues --    0.03286   0.03735   0.03924   0.04454   0.04661
 Alpha virt. eigenvalues --    0.04979   0.05440   0.06496   0.06847   0.07246

 Mulliken charges:
               1
     1  C   -0.747599
     2  C   -0.383640
     3  C   -0.211296
     4  N   -0.701060
     5  C    0.974651
     6  O   -0.744709
     7  N   -0.620336
     8  C    0.182528
     9  C    0.222509
    10  C   -1.539904
    11  C    0.009009
    12  C   -0.624540
    13  C    0.275021
    14  H    0.224072
    15  H    0.222789
    16  H    0.222504
    17  H    0.235405
    18  H    0.235730
    19  H    0.240478
    20  H    0.239903
    21  H    0.490240
    22  H    0.501193
    23  H    0.290699
    24  H    0.274905
    25  H    0.293699
    26  S    1.094221
    27  O   -0.533860
    28  O   -0.518068
    29  H    0.290795
    30  C    0.879939
    31  F   -0.272206
    32  F   -0.252104
    33  F   -0.250969
 Sum of Mulliken charges =  -0.00000

 Dipole moment (field-independent basis, Debye):
    X=            -11.7524    Y=              5.9852    Z=              4.9057  Tot=             14.0715
 Quadrupole moment (field-independent basis, Debye-Ang):
   XX=           -122.7208   YY=           -119.8211   ZZ=           -130.0909
   XY=            -22.3937   XZ=              3.6390   YZ=              2.6961

  Exact polarizability: 340.795   2.062 235.658 -15.422  24.386 177.041
 Approx polarizability: 260.330   0.667 213.312 -12.795  23.680 157.860

                      1                      2                      3
                      A                      A                      A
 Frequencies --      2.3270                18.0594                37.4971
 Red. masses --      4.9288                 5.8348                14.3272
 Frc consts  --      0.0000                 0.0011                 0.0119
 IR Inten    --     22.0133                 3.3851                 0.1383

                      4                      5                      6
                      A                      A                      A
 Frequencies --     40.9919                47.9397                56.1111
 Red. masses --      3.9793                 4.0888                 2.1954
 Frc consts  --      0.0039                 0.0055                 0.0041
 IR Inten    --      4.0691                 0.0288                25.0378

                      7                      8                      9
                      A                      A                      A
 Frequencies --     59.0198                71.0744               133.9458
 Red. masses --      5.1922                 6.2476                 6.5200
 Frc consts  --      0.0107                 0.0186                 0.0689
 IR Inten    --      1.0832                 0.2056                 5.0405

                     10                     11                     12
                      A                      A                      A
 Frequencies --    143.7279               155.1914               185.8902
 Red. masses --      3.4908                 4.6683                 9.8877
 Frc consts  --      0.0425                 0.0662                 0.2013
 IR Inten    --     12.5419                11.4932                 8.0646

                     13                     14                     15
                      A                      A                      A
 Frequencies --    194.4725               218.2270               247.5489
 Red. masses --     11.6108                 5.2109                 1.6492
 Frc consts  --      0.2587                 0.1462                 0.0595
 IR Inten    --      2.4299                 6.8440                 7.8518

                     16                     17                     18
                      A                      A                      A
 Frequencies --    249.2553               307.1406               307.9693
 Red. masses --      2.5655                 7.9367                13.2951
 Frc consts  --      0.0939                 0.4411                 0.7429
 IR Inten    --      9.3847                 1.7355                 0.0664

                     19                     20                     21
                      A                      A                      A
 Frequencies --    327.8013               342.0422               346.3143
 Red. masses --      6.3885                 1.1367                 4.4608
 Frc consts  --      0.4045                 0.0784                 0.3152
 IR Inten    --      5.5728                81.0552                31.4663

                     22                     23                     24
                      A                      A                      A
 Frequencies --    351.2988               373.7749               419.1421
 Red. masses --      8.3516                 7.7577                 2.9869
 Frc consts  --      0.6073                 0.6386                 0.3092
 IR Inten    --      4.4309                19.0874                 0.9622

                     25                     26                     27
                      A                      A                      A
 Frequencies --    443.8096               474.9229               507.4882
 Red. masses --      7.9410                 5.3037                 2.9771
 Frc consts  --      0.9215                 0.7048                 0.4517
 IR Inten    --      7.7611                61.6859                23.8907

                     28                     29                     30
                      A                      A                      A
 Frequencies --    522.2197               541.2897               557.6508
 Red. masses --      9.7094                 1.2181                17.1337
 Frc consts  --      1.5601                 0.2103                 3.1392
 IR Inten    --     45.5874               209.4990                 0.1689

                     31                     32                     33
                      A                      A                      A
 Frequencies --    567.0627               597.2520               633.9065
 Red. masses --      8.6175                10.1867                 7.1396
 Frc consts  --      1.6327                 2.1409                 1.6903
 IR Inten    --    137.9314               315.8097                 1.3777

                     34                     35                     36
                      A                      A                      A
 Frequencies --    710.3185               722.4480               757.3265
 Red. masses --      6.1242                 3.9266                 1.8517
 Frc consts  --      1.8206                 1.2075                 0.6257
 IR Inten    --    160.4030                21.2062                24.6605

                     37                     38                     39
                      A                      A                      A
 Frequencies --    767.6843               782.2294               790.4750
 Red. masses --      1.9476                10.4255                 9.3767
 Frc consts  --      0.6763                 3.7585                 3.4520
 IR Inten    --      1.4573                10.5794                21.9852

                     40                     41                     42
                      A                      A                      A
 Frequencies --    843.8842               860.4748               873.2566
 Red. masses --      1.2980                 1.6339                 5.4330
 Frc consts  --      0.5446                 0.7128                 2.4411
 IR Inten    --     10.7708                91.4457                 7.4205

                     43                     44                     45
                      A                      A                      A
 Frequencies --    906.7687               933.6572               992.9528
 Red. masses --      1.1506                 1.6700                 1.3099
 Frc consts  --      0.5574                 0.8577                 0.7609
 IR Inten    --      2.7925                 6.4881                 1.2022

                     46                     47                     48
                      A                      A                      A
 Frequencies --   1008.9421              1018.3334              1050.4815
 Red. masses --      1.3438                 3.7761                 4.2767
 Frc consts  --      0.8060                 2.3072                 2.7806
 IR Inten    --      0.4847                30.4970                18.5977

                     49                     50                     51
                      A                      A                      A
 Frequencies --   1082.7634              1086.3230              1137.4717
 Red. masses --      3.2190                 3.6720                 3.7077
 Frc consts  --      2.2235                 2.5531                 2.8264
 IR Inten    --     72.3184               160.1322               868.4909

                     52                     53                     54
                      A                      A                      A
 Frequencies --   1144.9291              1163.7241              1173.3074
 Red. masses --      2.1462                 1.4559                 3.2538
 Frc consts  --      1.6576                 1.1616                 2.6392
 IR Inten    --     52.9606                29.4160                 0.5651

                     55                     56                     57
                      A                      A                      A
 Frequencies --   1181.9704              1211.0705              1230.1297
 Red. masses --      1.6047                 1.7159                 3.4011
 Frc consts  --      1.3208                 1.4828                 3.0323
 IR Inten    --      0.5196               204.1395               236.9190

                     58                     59                     60
                      A                      A                      A
 Frequencies --   1256.3874              1257.4155              1266.8269
 Red. masses --     13.0864                13.3150                 1.6350
 Frc consts  --     12.1707                12.4037                 1.5460
 IR Inten    --    377.1478               228.2897               527.8592

                     61                     62                     63
                      A                      A                      A
 Frequencies --   1281.2345              1311.8362              1318.3088
 Red. masses --      1.1922                 7.2753                 2.4616
 Frc consts  --      1.1531                 7.3767                 2.5206
 IR Inten    --      0.4941               469.7665               152.7335

                     64                     65                     66
                      A                      A                      A
 Frequencies --   1329.1646              1340.2721              1349.7428
 Red. masses --      1.0732                 1.5576                 1.4679
 Frc consts  --      1.1171                 1.6485                 1.5756
 IR Inten    --      0.5031                42.7982                28.6211

                     67                     68                     69
                      A                      A                      A
 Frequencies --   1380.1306              1421.4979              1430.1242
 Red. masses --      5.4910                 1.2955                 1.6252
 Frc consts  --      6.1623                 1.5423                 1.9584
 IR Inten    --    392.2620                 7.0438                13.9413

                     70                     71                     72
                      A                      A                      A
 Frequencies --   1460.7378              1491.8774              1505.1942
 Red. masses --      3.2696                 1.0571                 1.0397
 Frc consts  --      4.1104                 1.3863                 1.3879
 IR Inten    --    101.4018                16.6852                11.9919

                     73                     74                     75
                      A                      A                      A
 Frequencies --   1512.6118              1530.4749              1543.1990
 Red. masses --      1.0854                 1.0927                 2.2587
 Frc consts  --      1.4632                 1.5080                 3.1692
 IR Inten    --     24.8923                67.0224               697.1732

                     76                     77                     78
                      A                      A                      A
 Frequencies --   1563.9711              1572.4117              1654.2241
 Red. masses --      2.3060                 2.4181                 6.0517
 Frc consts  --      3.3232                 3.5226                 9.7570
 IR Inten    --    255.7428              1270.7377               220.6297

                     79                     80                     81
                      A                      A                      A
 Frequencies --   1672.8998              1714.5054              3073.8472
 Red. masses --      4.3180                 4.5053                 1.0601
 Frc consts  --      7.1199                 7.8028                 5.9015
 IR Inten    --     31.8526               890.0940                 9.0353

                     82                     83                     84
                      A                      A                      A
 Frequencies --   3078.3006              3081.9608              3107.1231
 Red. masses --      1.0372                 1.0573                 1.1036
 Frc consts  --      5.7909                 5.9169                 6.2775
 IR Inten    --     22.4647               104.3620                 0.1855

                     85                     86                     87
                      A                      A                      A
 Frequencies --   3127.0566              3148.5914              3158.1702
 Red. masses --      1.1074                 1.1040                 1.1023
 Frc consts  --      6.3802                 6.4482                 6.4778
 IR Inten    --     52.2765                92.0094                46.7566

                     88                     89                     90
                      A                      A                      A
 Frequencies --   3235.5752              3249.7512              3253.6549
 Red. masses --      1.0914                 1.0927                 1.0957
 Frc consts  --      6.7320                 6.7993                 6.8339
 IR Inten    --      1.6298                 2.4145                 4.3259

                     91                     92                     93
                      A                      A                      A
 Frequencies --   3315.1271              3588.0719              3613.2640
 Red. masses --      1.0927                 1.0793                 1.0798
 Frc consts  --      7.0755                 8.1867                 8.3060
 IR Inten    --     14.1759                74.4023               244.0395

 - Thermochemistry -
 -------------------
 Temperature   298.150 Kelvin.  Pressure   1.00000 Atm.
 Atom     1 has atomic number  6 and mass  12.00000

 Molecular mass:   310.05990 amu.
 Principal axes and moments of inertia in atomic units:
                           1         2         3
     Eigenvalues --  1739.99730********************
           X            0.99997   0.00409  -0.00583
           Y           -0.00290   0.98154   0.19123
           Z            0.00651  -0.19121   0.98153
 This molecule is an asymmetric top.
 Rotational symmetry number  1.
 Warning -- assumption of classical behavior for rotation
           may cause significant error
 Rotational temperatures (Kelvin)      0.04978     0.00453     0.00449
 Rotational constants (GHZ):           1.03721     0.09436     0.09359
 Zero-point vibrational energy     646634.4 (Joules/Mol)
                                  154.54933 (Kcal/Mol)
 Warning -- explicit consideration of  32 degrees of freedom as
           vibrations may cause significant error
 Vibrational temperatures:      3.35    25.98    53.95    58.98    68.97
          (Kelvin)             80.73    84.92   102.26   192.72   206.79
                              223.29   267.45   279.80   313.98   356.17
                              358.62   441.91   443.10   471.63   492.12
                              498.27   505.44   537.78   603.05   638.54
                              683.31   730.16   751.36   778.79   802.33
                              815.88   859.31   912.05  1021.99  1039.44
                             1089.62  1104.53  1125.45  1137.32  1214.16
                             1238.03  1256.42  1304.64  1343.32  1428.64
                             1451.64  1465.15  1511.41  1557.85  1562.97
                             1636.57  1647.30  1674.34  1688.13  1700.59
                             1742.46  1769.88  1807.66  1809.14  1822.68
                             1843.41  1887.44  1896.75  1912.37  1928.35
                             1941.98  1985.70  2045.22  2057.63  2101.67
                             2146.48  2165.64  2176.31  2202.01  2220.32
                             2250.20  2262.35  2380.06  2406.93  2466.79
                             4422.57  4428.98  4434.25  4470.45  4499.13
                             4530.12  4543.90  4655.27  4675.66  4681.28
                             4769.72  5162.43  5198.67

 Zero-point correction=                           0.246290 (Hartree/Particle)
 Thermal correction to Energy=                    0.266638
 Thermal correction to Enthalpy=                  0.267582
 Thermal correction to Gibbs Free Energy=         0.191217
 Sum of electronic and zero-point Energies=          -1459.216786
 Sum of electronic and thermal Energies=             -1459.196438
 Sum of electronic and thermal Enthalpies=           -1459.195494
 Sum of electronic and thermal Free Energies=        -1459.271858

                     E (Thermal)             CV                S
                      KCal/Mol        Cal/Mol-Kelvin    Cal/Mol-Kelvin
 Total                  167.318             72.588            160.722
 Electronic               0.000              0.000              0.000
 Translational            0.889              2.981             43.091
 Rotational               0.889              2.981             34.816
 Vibrational            165.540             66.626             82.815
 Vibration     1          0.592              1.987             10.908
 Vibration     2          0.593              1.986              6.837
 Vibration     3          0.594              1.982              5.387
 Vibration     4          0.594              1.981              5.211
 Vibration     5          0.595              1.978              4.901
 Vibration     6          0.596              1.975              4.589
 Vibration     7          0.596              1.974              4.490
 Vibration     8          0.598              1.968              4.123
 Vibration     9          0.613              1.919              2.889
 Vibration    10          0.616              1.909              2.754
 Vibration    11          0.620              1.897              2.608
 Vibration    12          0.632              1.859              2.268
 Vibration    13          0.635              1.848              2.185
 Vibration    14          0.646              1.813              1.974
 Vibration    15          0.661              1.767              1.748
 Vibration    16          0.662              1.764              1.736
 Vibration    17          0.697              1.660              1.378
 Vibration    18          0.698              1.659              1.373
 Vibration    19          0.711              1.620              1.271
 Vibration    20          0.721              1.591              1.203
 Vibration    21          0.724              1.583              1.183
 Vibration    22          0.728              1.573              1.160
 Vibration    23          0.745              1.526              1.064
 Vibration    24          0.782              1.429              0.895
 Vibration    25          0.803              1.375              0.815
 Vibration    26          0.832              1.306              0.724
 Vibration    27          0.863              1.233              0.640
 Vibration    28          0.877              1.201              0.605
 Vibration    29          0.896              1.159              0.563
 Vibration    30          0.913              1.123              0.529
 Vibration    31          0.923              1.103              0.510
 Vibration    32          0.955              1.038              0.454

 Optimization completed on the basis of negligible forces.
    -- Stationary point found.
 Normal termination of Gaussian 09 at Tue Oct 30 13:15:02 2018.
