 Gaussian 09, Revision E.01,

 ----------------------------------------------------------------------
 # M062X/Gen 6D SCF=Tight INT(grid=ultrafine) OPT IOP(2/17=4) SCRF=(SMD
 ,Solvent=n-Pentadecane) maxdisk=2684354560
 ----------------------------------------------------------------------

 -----------------------------------------
 4SulfOxyCF3.M062X_6-31pGd_opt_Pentadecane
 -----------------------------------------
 Symbolic Z-matrix:
 Charge =  0 Multiplicity = 1

 SCF Done:  E(RM062X) =  -1459.37164330     A.U. after   17 cycles
 SCF Done:  E(RM062X) =  -1459.42144346     A.U. after   15 cycles
 SCF Done:  E(RM062X) =  -1459.44463897     A.U. after   15 cycles
 SCF Done:  E(RM062X) =  -1459.44829524     A.U. after   15 cycles
 SCF Done:  E(RM062X) =  -1459.45069667     A.U. after   16 cycles
 SCF Done:  E(RM062X) =  -1459.45285834     A.U. after   16 cycles
 SCF Done:  E(RM062X) =  -1459.45309504     A.U. after   14 cycles
 SCF Done:  E(RM062X) =  -1459.45311746     A.U. after   12 cycles
 SCF Done:  E(RM062X) =  -1459.45312681     A.U. after   11 cycles
 SCF Done:  E(RM062X) =  -1459.45313178     A.U. after   11 cycles
 SCF Done:  E(RM062X) =  -1459.45327321     A.U. after   11 cycles
 SCF Done:  E(RM062X) =  -1459.45326960     A.U. after   11 cycles
 SCF Done:  E(RM062X) =  -1459.45326896     A.U. after   11 cycles
 SCF Done:  E(RM062X) =  -1459.45326849     A.U. after   12 cycles
 SCF Done:  E(RM062X) =  -1459.45326959     A.U. after   11 cycles
 SCF Done:  E(RM062X) =  -1459.45327178     A.U. after   11 cycles
 SCF Done:  E(RM062X) =  -1459.45327237     A.U. after   10 cycles
 SCF Done:  E(RM062X) =  -1459.45327303     A.U. after   11 cycles
 SCF Done:  E(RM062X) =  -1459.45327325     A.U. after    8 cycles
 Optimization completed on the basis of negligible forces.
    -- Stationary point found.
 Normal termination of Gaussian 09 at Sun Feb 24 14:29:34 2019.
 Gaussian 09:  ES64L-G09RevE.01 30-Nov-2015

 ----------------------------------------------------------------------
 # M062X/Gen 6D SCF=Tight INT(grid=ultrafine) SCRF=(SMD,Solvent=n-Penta
 decane) Freq=Noraman maxdisk=2684354560 geom=check guess=read IOP(2/17
 =4)
 ----------------------------------------------------------------------

 -----------------------------------------
 4SulfOxyCF3.M062X_6-31pGd_opt_Pentadecane
 -----------------------------------------
 Structure from the checkpoint file:  "4SulfOxyCF3.M062X_6-31pGd_opt_Pentadecane.chk"
 Charge =  0 Multiplicity = 1

                         Standard orientation:
 ---------------------------------------------------------------------
 Center     Atomic      Atomic             Coordinates (Angstroms)
 Number     Number       Type             X           Y           Z
 ---------------------------------------------------------------------
      1          6           0       -8.264318   -0.486668    0.248051
      2          6           0       -6.990347    0.319970    0.481994
      3          6           0       -5.770810   -0.383297   -0.099511
      4          7           0       -4.568618    0.405337    0.139187
      5          6           0       -3.337525   -0.136489   -0.088930
      6          8           0       -3.169359   -1.304860   -0.402141
      7          7           0       -2.292092    0.766488    0.101407
      8          6           0       -0.934145    0.560864   -0.109734
      9          6           0       -0.395495   -0.633818   -0.620752
     10          6           0       -0.075943    1.634120    0.201629
     11          6           0        1.288819    1.529237    0.009890
     12          6           0        1.805862    0.336776   -0.500877
     13          6           0        0.974714   -0.738118   -0.814829
     14          1           0       -9.136015    0.023799    0.667837
     15          1           0       -8.195220   -1.473774    0.717902
     16          1           0       -8.446458   -0.636560   -0.821763
     17          1           0       -6.833725    0.476707    1.556142
     18          1           0       -7.094104    1.312701    0.022781
     19          1           0       -5.907312   -0.560004   -1.175396
     20          1           0       -5.629163   -1.358862    0.374105
     21          1           0       -4.670980    1.413368    0.132180
     22          1           0       -2.534886    1.669140    0.492429
     23          1           0       -1.046714   -1.461798   -0.860814
     24          1           0       -0.492983    2.559804    0.589860
     25          1           0        1.948331    2.360095    0.241357
     26         16           0        3.539497    0.186611   -0.733639
     27          8           0        4.149032    1.506230   -0.819057
     28          8           0        3.830929   -0.869572   -1.691440
     29          1           0        1.398181   -1.653041   -1.218684
     30          6           0        4.117481   -0.489084    0.901083
     31          9           0        5.434217   -0.647315    0.862405
     32          9           0        3.806625    0.355161    1.881864
     33          9           0        3.541325   -1.662898    1.143414
 ---------------------------------------------------------------------

 SCF Done:  E(RM062X) =  -1459.45327325     A.U. after    2 cycles

 The electronic state is 1-A.
 Alpha  occ. eigenvalues --  -90.16769 -25.33090 -25.33055 -25.32982 -19.66513
 Alpha  occ. eigenvalues --  -19.66496 -19.62747 -14.82235 -14.79948 -10.83947
 Alpha  occ. eigenvalues --  -10.70167 -10.63623 -10.60126 -10.59270 -10.58989
 Alpha  occ. eigenvalues --  -10.58817 -10.58136 -10.57126 -10.55722 -10.54303
 Alpha  occ. eigenvalues --   -8.48185  -6.40333  -6.40315  -6.40235  -1.49964
 Alpha  occ. eigenvalues --   -1.40646  -1.40631  -1.25569  -1.19440  -1.15031
 Alpha  occ. eigenvalues --   -1.08016  -1.04487  -0.98891  -0.90511  -0.88763
 Alpha  occ. eigenvalues --   -0.87712  -0.85897  -0.80329  -0.77664  -0.74155
 Alpha  occ. eigenvalues --   -0.73369  -0.72075  -0.71925  -0.69666  -0.69009
 Alpha  occ. eigenvalues --   -0.67046  -0.64928  -0.63406  -0.60963  -0.59802
 Alpha  occ. eigenvalues --   -0.59292  -0.57024  -0.56588  -0.55895  -0.55851
 Alpha  occ. eigenvalues --   -0.55566  -0.54985  -0.53967  -0.53763  -0.53435
 Alpha  occ. eigenvalues --   -0.53367  -0.52252  -0.50800  -0.48969  -0.48788
 Alpha  occ. eigenvalues --   -0.47550  -0.46081  -0.43676  -0.43347  -0.42542
 Alpha  occ. eigenvalues --   -0.42396  -0.41443  -0.40864  -0.40283  -0.40032
 Alpha  occ. eigenvalues --   -0.37951  -0.36016  -0.33814  -0.33378  -0.29552
 Alpha virt. eigenvalues --   -0.02808  -0.00436  -0.00298   0.01908   0.02665
 Alpha virt. eigenvalues --    0.03203   0.03332   0.03513   0.04082   0.04472
 Alpha virt. eigenvalues --    0.04679   0.05070   0.06057   0.06511   0.06805

 Mulliken charges:
               1
     1  C   -0.738801
     2  C   -0.337547
     3  C   -0.185220
     4  N   -0.624535
     5  C    0.840641
     6  O   -0.593472
     7  N   -0.647275
     8  C    0.218798
     9  C    0.229612
    10  C   -1.413907
    11  C   -0.010789
    12  C   -0.696362
    13  C    0.233794
    14  H    0.219356
    15  H    0.220010
    16  H    0.218822
    17  H    0.229954
    18  H    0.213292
    19  H    0.225234
    20  H    0.245107
    21  H    0.416051
    22  H    0.442107
    23  H    0.286416
    24  H    0.228728
    25  H    0.271257
    26  S    1.061509
    27  O   -0.469202
    28  O   -0.446337
    29  H    0.272560
    30  C    0.874991
    31  F   -0.271114
    32  F   -0.259622
    33  F   -0.254056
 Sum of Mulliken charges =  -0.00000

 Dipole moment (field-independent basis, Debye):
    X=             -9.6986    Y=              4.2160    Z=              2.7312  Tot=             10.9224
 Quadrupole moment (field-independent basis, Debye-Ang):
   XX=           -120.5586   YY=           -120.3452   ZZ=           -129.6634
   XY=            -16.2059   XZ=              6.0892   YZ=              2.1417

  Exact polarizability: 290.220   0.648 176.746  -9.762  16.590 136.453
 Approx polarizability: 252.212   0.562 217.178 -11.149  24.518 158.699

                      1                      2                      3
                      A                      A                      A
 Frequencies --      7.2620                18.5767                33.6055
 Red. masses --      3.6983                 5.1095                 3.2463
 Frc consts  --      0.0001                 0.0010                 0.0022
 IR Inten    --      3.0189                 7.2529                 6.4394

                      4                      5                      6
                      A                      A                      A
 Frequencies --     38.7239                52.3369                55.7067
 Red. masses --     13.7806                 3.7954                 4.2923
 Frc consts  --      0.0122                 0.0061                 0.0078
 IR Inten    --      0.0919                 1.6069                 1.1426

                      7                      8                      9
                      A                      A                      A
 Frequencies --     62.0749                78.8546               130.8109
 Red. masses --      5.1100                 3.5882                 5.8683
 Frc consts  --      0.0116                 0.0131                 0.0592
 IR Inten    --      0.2077                 2.3127                 7.3259

                     10                     11                     12
                      A                      A                      A
 Frequencies --    150.6524               184.8228               189.8236
 Red. masses --      6.1578                 5.7443                 4.2389
 Frc consts  --      0.0823                 0.1156                 0.0900
 IR Inten    --      3.3903                 6.6717                 1.5014

                     13                     14                     15
                      A                      A                      A
 Frequencies --    195.4283               215.8115               238.8148
 Red. masses --     11.4236                 3.9632                 1.1245
 Frc consts  --      0.2571                 0.1088                 0.0378
 IR Inten    --      1.3245                12.1900                 0.2312

                     16                     17                     18
                      A                      A                      A
 Frequencies --    250.1119               296.3645               309.2937
 Red. masses --      8.9179                 1.8396                10.2087
 Frc consts  --      0.3287                 0.0952                 0.5754
 IR Inten    --     11.5043                65.9001                 2.3630

                     19                     20                     21
                      A                      A                      A
 Frequencies --    309.5210               329.0773               344.5104
 Red. masses --      3.5044                 5.8791                 4.9400
 Frc consts  --      0.1978                 0.3751                 0.3454
 IR Inten    --     33.9616                 0.8907                12.7809

                     22                     23                     24
                      A                      A                      A
 Frequencies --    354.7305               376.9059               421.6432
 Red. masses --      7.8638                 7.6980                 3.0313
 Frc consts  --      0.5830                 0.6443                 0.3175
 IR Inten    --      7.2214                 8.2319                 0.2285

                     25                     26                     27
                      A                      A                      A
 Frequencies --    446.7936               484.1120               511.9239
 Red. masses --      7.9298                 4.8452                 3.2125
 Frc consts  --      0.9327                 0.6690                 0.4960
 IR Inten    --      2.4840                50.3710                11.5555

                     28                     29                     30
                      A                      A                      A
 Frequencies --    527.5215               542.6312               559.2951
 Red. masses --      9.7434                 1.2061                16.9467
 Frc consts  --      1.5975                 0.2092                 3.1233
 IR Inten    --     16.6382               122.1468                 0.1341

                     31                     32                     33
                      A                      A                      A
 Frequencies --    577.5840               607.1985               636.5671
 Red. masses --      8.1265                 9.3141                 7.0899
 Frc consts  --      1.5973                 2.0233                 1.6927
 IR Inten    --     85.5643               227.1409                 1.0287

                     34                     35                     36
                      A                      A                      A
 Frequencies --    713.0997               726.7998               754.6401
 Red. masses --      6.6079                 3.8891                 1.6509
 Frc consts  --      1.9798                 1.2104                 0.5539
 IR Inten    --    121.6781                12.1682                15.5136

                     37                     38                     39
                      A                      A                      A
 Frequencies --    766.1015               783.1029               792.9088
 Red. masses --      2.3130                12.2450                 6.8017
 Frc consts  --      0.7998                 4.4243                 2.5195
 IR Inten    --      4.2178                12.7947                13.5059

                     40                     41                     42
                      A                      A                      A
 Frequencies --    847.2980               871.9345               873.7311
 Red. masses --      1.3940                 1.8367                 3.0564
 Frc consts  --      0.5897                 0.8227                 1.3747
 IR Inten    --     22.1612                23.1005                18.8131

                     43                     44                     45
                      A                      A                      A
 Frequencies --    900.6375               933.8741               991.6677
 Red. masses --      1.1800                 1.6866                 1.3131
 Frc consts  --      0.5639                 0.8667                 0.7608
 IR Inten    --      2.6918                 5.3619                 0.6807

                     46                     47                     48
                      A                      A                      A
 Frequencies --   1014.5747              1024.2639              1047.3925
 Red. masses --      1.3310                 3.7178                 4.2706
 Frc consts  --      0.8072                 2.2981                 2.7603
 IR Inten    --      0.6678                15.2101                 5.5796

                     49                     50                     51
                      A                      A                      A
 Frequencies --   1081.3691              1101.8491              1145.8989
 Red. masses --      2.6066                 4.2700                 2.6062
 Frc consts  --      1.7959                 3.0544                 2.0163
 IR Inten    --      4.8688               138.9630                 7.6288

                     52                     53                     54
                      A                      A                      A
 Frequencies --   1157.2117              1164.7945              1168.5677
 Red. masses --      3.6606                 1.8034                 1.7854
 Frc consts  --      2.8882                 1.4416                 1.4365
 IR Inten    --    453.0239                12.3803                41.0672

                     55                     56                     57
                      A                      A                      A
 Frequencies --   1182.7214              1218.0643              1238.1710
 Red. masses --      1.8105                 1.5393                 4.2963
 Frc consts  --      1.4921                 1.3456                 3.8807
 IR Inten    --      5.1749               185.4649               188.2080

                     58                     59                     60
                      A                      A                      A
 Frequencies --   1254.0456              1266.5026              1278.4951
 Red. masses --      1.6644                13.1129                10.9096
 Frc consts  --      1.5422                12.3926                10.5065
 IR Inten    --    309.9692               171.1214               391.3453

                     61                     62                     63
                      A                      A                      A
 Frequencies --   1281.7018              1314.2198              1326.6122
 Red. masses --      1.2961                 2.2568                 1.1557
 Frc consts  --      1.2545                 2.2965                 1.1983
 IR Inten    --     62.3798                 3.7808                14.2717

                     64                     65                     66
                      A                      A                      A
 Frequencies --   1341.4692              1348.7705              1363.7236
 Red. masses --      1.4936                 1.3753                11.7198
 Frc consts  --      1.5836                 1.4741                12.8417
 IR Inten    --     22.3013                 9.5192               241.1793

                     67                     68                     69
                      A                      A                      A
 Frequencies --   1377.9839              1425.2828              1436.7510
 Red. masses --      6.2147                 1.5142                 1.3380
 Frc consts  --      6.9528                 1.8124                 1.6273
 IR Inten    --    301.4471                 3.2451                 2.1226

                     70                     71                     72
                      A                      A                      A
 Frequencies --   1461.7346              1508.2402              1519.5852
 Red. masses --      3.1107                 1.0602                 1.0400
 Frc consts  --      3.9160                 1.4210                 1.4149
 IR Inten    --     69.5040                 9.9402                13.2402

                     73                     74                     75
                      A                      A                      A
 Frequencies --   1521.9234              1534.9887              1551.9701
 Red. masses --      1.0745                 1.0903                 2.1696
 Frc consts  --      1.4664                 1.5136                 3.0790
 IR Inten    --      5.5064                11.4415               372.8907

                     76                     77                     78
                      A                      A                      A
 Frequencies --   1567.4498              1589.9244              1664.5108
 Red. masses --      2.0223                 2.2474                 4.5749
 Frc consts  --      2.9273                 3.3472                 7.4680
 IR Inten    --    361.0347               877.3782               195.9167

                     79                     80                     81
                      A                      A                      A
 Frequencies --   1679.1856              1811.5200              3059.0407
 Red. masses --      4.9754                 7.7400                 1.0631
 Frc consts  --      8.2656                14.9650                 5.8612
 IR Inten    --     61.0486               384.0182                21.9324

                     82                     83                     84
                      A                      A                      A
 Frequencies --   3063.2811              3079.6075              3105.5328
 Red. masses --      1.0709                 1.0366                 1.0970
 Frc consts  --      5.9206                 5.7924                 6.2334
 IR Inten    --     44.9960                34.0680                18.7537

                     85                     86                     87
                      A                      A                      A
 Frequencies --   3142.2347              3150.6797              3158.8047
 Red. masses --      1.0977                 1.1027                 1.1020
 Frc consts  --      6.3858                 6.4495                 6.4788
 IR Inten    --      2.9785                59.9005                32.2600

                     88                     89                     90
                      A                      A                      A
 Frequencies --   3220.7256              3246.1336              3249.2099
 Red. masses --      1.0906                 1.0923                 1.0946
 Frc consts  --      6.6653                 6.7815                 6.8086
 IR Inten    --      7.0274                 2.0996                 2.9732

                     91                     92                     93
                      A                      A                      A
 Frequencies --   3305.9120              3610.9653              3626.1281
 Red. masses --      1.0930                 1.0785                 1.0777
 Frc consts  --      7.0378                 8.2858                 8.3490
 IR Inten    --     14.5517                13.8056                99.7058

 - Thermochemistry -
 -------------------
 Temperature   298.150 Kelvin.  Pressure   1.00000 Atm.
 Atom     1 has atomic number  6 and mass  12.00000

 Molecular mass:   310.05990 amu.
 Principal axes and moments of inertia in atomic units:
                           1         2         3
     Eigenvalues --  1732.90620********************
           X            0.99998   0.00397  -0.00518
           Y           -0.00295   0.98300   0.18356
           Z            0.00582  -0.18355   0.98299
 This molecule is an asymmetric top.
 Rotational symmetry number  1.
 Warning -- assumption of classical behavior for rotation
           may cause significant error
 Rotational temperatures (Kelvin)      0.04998     0.00452     0.00448
 Rotational constants (GHZ):           1.04145     0.09418     0.09338
 Zero-point vibrational energy     648882.1 (Joules/Mol)
                                  155.08654 (Kcal/Mol)
 Warning -- explicit consideration of  32 degrees of freedom as
           vibrations may cause significant error
 Vibrational temperatures:     10.45    26.73    48.35    55.71    75.30
          (Kelvin)             80.15    89.31   113.45   188.21   216.75
                              265.92   273.11   281.18   310.50   343.60
                              359.85   426.40   445.00   445.33   473.47
                              495.67   510.38   542.28   606.65   642.84
                              696.53   736.54   758.98   780.72   804.70
                              831.01   873.62   915.88  1025.99  1045.70
                             1085.76  1102.25  1126.71  1140.82  1219.07
                             1254.52  1257.10  1295.81  1343.63  1426.79
                             1459.74  1473.69  1506.96  1555.85  1585.31
                             1648.69  1664.97  1675.88  1681.31  1701.67
                             1752.52  1781.45  1804.29  1822.21  1839.47
                             1844.08  1890.87  1908.70  1930.07  1940.58
                             1962.09  1982.61  2050.66  2067.16  2103.11
                             2170.02  2186.34  2189.71  2208.50  2232.94
                             2255.21  2287.54  2394.86  2415.97  2606.37
                             4401.27  4407.37  4430.86  4468.16  4520.97
                             4533.12  4544.81  4633.90  4670.46  4674.88
                             4756.46  5195.37  5217.18

 Zero-point correction=                           0.247146 (Hartree/Particle)
 Thermal correction to Energy=                    0.267410
 Thermal correction to Enthalpy=                  0.268355
 Thermal correction to Gibbs Free Energy=         0.193299
 Sum of electronic and zero-point Energies=          -1459.206127
 Sum of electronic and thermal Energies=             -1459.185863
 Sum of electronic and thermal Enthalpies=           -1459.184919
 Sum of electronic and thermal Free Energies=        -1459.259974

                     E (Thermal)             CV                S
                      KCal/Mol        Cal/Mol-Kelvin    Cal/Mol-Kelvin
 Total                  167.803             72.379            157.967
 Electronic               0.000              0.000              0.000
 Translational            0.889              2.981             43.091
 Rotational               0.889              2.981             34.817
 Vibrational            166.025             66.418             80.059
 Vibration     1          0.593              1.987              8.647
 Vibration     2          0.593              1.986              6.781
 Vibration     3          0.594              1.983              5.604
 Vibration     4          0.594              1.981              5.323
 Vibration     5          0.596              1.977              4.727
 Vibration     6          0.596              1.975              4.604
 Vibration     7          0.597              1.972              4.390
 Vibration     8          0.600              1.963              3.919
 Vibration     9          0.612              1.923              2.934
 Vibration    10          0.618              1.902              2.664
 Vibration    11          0.631              1.861              2.279
 Vibration    12          0.633              1.854              2.230
 Vibration    13          0.636              1.846              2.176
 Vibration    14          0.645              1.817              1.994
 Vibration    15          0.657              1.781              1.812
 Vibration    16          0.663              1.763              1.730
 Vibration    17          0.690              1.681              1.437
 Vibration    18          0.699              1.656              1.366
 Vibration    19          0.699              1.656              1.365
 Vibration    20          0.712              1.617              1.265
 Vibration    21          0.723              1.586              1.191
 Vibration    22          0.731              1.566              1.145
 Vibration    23          0.747              1.519              1.052
 Vibration    24          0.784              1.423              0.886
 Vibration    25          0.806              1.368              0.806
 Vibration    26          0.840              1.285              0.699
 Vibration    27          0.867              1.224              0.629
 Vibration    28          0.882              1.189              0.593
 Vibration    29          0.898              1.156              0.560
 Vibration    30          0.915              1.119              0.525
 Vibration    31          0.934              1.080              0.490
 Vibration    32          0.966              1.017              0.437

 Optimization completed on the basis of negligible forces.
    -- Stationary point found.
 Normal termination of Gaussian 09 at Sun Feb 24 15:32:20 2019.
