 Gaussian 09, Revision E.01,

 ----------------------------------------------------------------------
 # M062X/Gen 6D NoSymm SCF=Tight INT(grid=ultrafine) OPT IOP(2/17=4) ma
 xdisk=2147483648
 ----------------------------------------------------------------------

 -----------------------
 aryl_urea_OCF3_a1.M062X
 -----------------------
 Symbolic Z-matrix:
 Charge = -1 Multiplicity = 1

 SCF Done:  E(RM062X) =  -985.609473370     A.U. after   16 cycles
 SCF Done:  E(RM062X) =  -985.612989775     A.U. after   15 cycles
 SCF Done:  E(RM062X) =  -985.614286174     A.U. after   15 cycles
 SCF Done:  E(RM062X) =  -985.615422710     A.U. after   15 cycles
 SCF Done:  E(RM062X) =  -985.615488231     A.U. after   14 cycles
 SCF Done:  E(RM062X) =  -985.615781496     A.U. after   15 cycles
 SCF Done:  E(RM062X) =  -985.615973280     A.U. after   14 cycles
 SCF Done:  E(RM062X) =  -985.616033019     A.U. after   13 cycles
 SCF Done:  E(RM062X) =  -985.616088689     A.U. after   13 cycles
 SCF Done:  E(RM062X) =  -985.616126858     A.U. after   12 cycles
 SCF Done:  E(RM062X) =  -985.618677801     A.U. after   14 cycles
 SCF Done:  E(RM062X) =  -985.618874962     A.U. after   14 cycles
 SCF Done:  E(RM062X) =  -985.619079716     A.U. after   16 cycles
 SCF Done:  E(RM062X) =  -985.619187625     A.U. after   14 cycles
 SCF Done:  E(RM062X) =  -985.619258020     A.U. after   13 cycles
 SCF Done:  E(RM062X) =  -985.619273109     A.U. after   12 cycles
 SCF Done:  E(RM062X) =  -985.619275132     A.U. after   11 cycles
 SCF Done:  E(RM062X) =  -985.619275577     A.U. after   10 cycles
 SCF Done:  E(RM062X) =  -985.619275621     A.U. after    9 cycles
 Optimization completed.
    -- Stationary point found.
 Normal termination of Gaussian 09 at Thu Jul 12 19:43:38 2018.
 Gaussian 09:  ES64L-G09RevE.01 30-Nov-2015

 ----------------------------------------------------------------------
 # M062X/Gen 6D SCF=Tight INT(grid=ultrafine) Freq=Noraman geom=check g
 uess=read IOP(2/17=4) maxdisk=2147483648
 ----------------------------------------------------------------------

 -----------------------
 aryl_urea_OCF3_a1.M062X
 -----------------------
 Structure from the checkpoint file:  "aryl_urea_OCF3_a1.M062X.chk"
 Charge = -1 Multiplicity = 1

                         Standard orientation:
 ---------------------------------------------------------------------
 Center     Atomic      Atomic             Coordinates (Angstroms)
 Number     Number       Type             X           Y           Z
 ---------------------------------------------------------------------
      1          6           0       -2.480176    0.148302   -0.575509
      2          6           0       -1.988877    1.439034   -0.412431
      3          6           0       -0.625688    1.622505   -0.244882
      4          6           0        0.302835    0.542737   -0.239093
      5          6           0       -0.252637   -0.758468   -0.418136
      6          6           0       -1.622675   -0.941610   -0.583824
      7          7           0        1.613357    0.880517   -0.061541
      8          6           0        2.581553   -0.053744   -0.070207
      9          7           0        3.843556    0.520193    0.223563
     10          8           0        2.526785   -1.282467   -0.272062
     11          6           0        5.045875   -0.145634   -0.214057
     12          6           0        6.240818    0.201903    0.671538
     13          6           0        7.522312   -0.487239    0.205716
     14          1           0       -0.219277    2.621370   -0.112217
     15          1           0        0.415697   -1.608677   -0.428479
     16          1           0        3.819972    1.526937    0.113529
     17          1           0        5.296543    0.089261   -1.266716
     18          1           0        4.839895   -1.219248   -0.170933
     19          1           0        6.001674   -0.085574    1.702223
     20          1           0        6.388581    1.291289    0.677367
     21          1           0        7.401001   -1.576783    0.211690
     22          1           0        8.374315   -0.239989    0.848604
     23          1           0        7.777899   -0.190652   -0.818673
     24          8           0       -3.870683   -0.046401   -0.813120
     25          6           0       -4.632752   -0.231086    0.262827
     26          9           0       -5.902671   -0.389375   -0.140396
     27          9           0       -4.302824   -1.321435    0.978679
     28          9           0       -4.614398    0.805841    1.121645
     29          1           0       -2.675464    2.281847   -0.417140
     30          1           0       -2.032524   -1.939283   -0.722961
 ---------------------------------------------------------------------

 SCF Done:  E(RM062X) =  -985.619272469     A.U. after    7 cycles

 The electronic state is 1-A.
 Alpha  occ. eigenvalues --  -25.21108 -25.20521 -25.20488 -19.60028 -19.44438
 Alpha  occ. eigenvalues --  -14.62259 -14.56392 -10.75787 -10.50151 -10.48296
 Alpha  occ. eigenvalues --  -10.45319 -10.45241 -10.44574 -10.44499 -10.43351
 Alpha  occ. eigenvalues --  -10.43084 -10.41370 -10.40542  -1.38280  -1.28493
 Alpha  occ. eigenvalues --   -1.27946  -1.12259  -0.99415  -0.87556  -0.85343
 Alpha  occ. eigenvalues --   -0.81213  -0.77380  -0.73081  -0.71564  -0.68421
 Alpha  occ. eigenvalues --   -0.65546  -0.61640  -0.60983  -0.60158  -0.57134
 Alpha  occ. eigenvalues --   -0.56725  -0.53260  -0.50111  -0.48610  -0.48131
 Alpha  occ. eigenvalues --   -0.46681  -0.45508  -0.44241  -0.44049  -0.43000
 Alpha  occ. eigenvalues --   -0.41924  -0.41736  -0.40486  -0.40175  -0.38788
 Alpha  occ. eigenvalues --   -0.37556  -0.36437  -0.35892  -0.34311  -0.33586
 Alpha  occ. eigenvalues --   -0.33079  -0.32357  -0.31219  -0.30699  -0.28958
 Alpha  occ. eigenvalues --   -0.28727  -0.26513  -0.21227  -0.20084  -0.17971
 Alpha  occ. eigenvalues --   -0.16740  -0.14874  -0.09320
 Alpha virt. eigenvalues --    0.10250   0.11168   0.11822   0.12722   0.13287
 Alpha virt. eigenvalues --    0.13410   0.13849   0.14234   0.14929   0.15174
 Alpha virt. eigenvalues --    0.15733   0.16053   0.16541   0.16761   0.16845

 Mulliken charges:
               1
     1  C   -0.326079
     2  C    0.107053
     3  C   -0.934157
     4  C   -0.021986
     5  C    0.276706
     6  C   -0.126010
     7  N   -0.509176
     8  C    0.608189
     9  N   -0.524361
    10  O   -0.669350
    11  C   -0.265199
    12  C   -0.230787
    13  C   -0.735937
    14  H    0.186665
    15  H    0.258387
    16  H    0.387674
    17  H    0.167749
    18  H    0.248129
    19  H    0.216447
    20  H    0.187551
    21  H    0.205975
    22  H    0.188835
    23  H    0.198924
    24  O   -0.460873
    25  C    1.237678
    26  F   -0.356246
    27  F   -0.345146
    28  F   -0.349774
    29  H    0.188481
    30  H    0.190640
 Sum of Mulliken charges =  -1.00000

 Dipole moment (field-independent basis, Debye):
    X=             -1.3455    Y=              1.0528    Z=              0.1405  Tot=              1.7142
 Quadrupole moment (field-independent basis, Debye-Ang):
   XX=           -158.2488   YY=           -112.0280   ZZ=           -114.1333
   XY=              4.0610   XZ=             -0.8638   YZ=             -1.0088

  Exact polarizability: 264.234  -4.308 149.459   7.645   4.633 108.673
 Approx polarizability: 248.391  -2.309 200.485   9.654   7.200 138.423

                      1                      2                      3
                      A                      A                      A
 Frequencies --     18.7313                27.4354                38.9960
 Red. masses --      4.4225                 6.3220                 5.1348
 Frc consts  --      0.0009                 0.0028                 0.0046
 IR Inten    --      1.5988                 0.9157                 2.9626

                      4                      5                      6
                      A                      A                      A
 Frequencies --     46.3380                60.7893                68.0737
 Red. masses --      4.1505                 4.1759                 4.6489
 Frc consts  --      0.0053                 0.0091                 0.0127
 IR Inten    --      0.7863                 0.3107                 3.3522

                      7                      8                      9
                      A                      A                      A
 Frequencies --     82.3731               115.9055               142.5586
 Red. masses --      3.2223                 7.1226                 4.0018
 Frc consts  --      0.0129                 0.0564                 0.0479
 IR Inten    --      0.4173                 0.5596                 5.6126

                     10                     11                     12
                      A                      A                      A
 Frequencies --    204.8826               217.2970               235.2673
 Red. masses --      6.9412                 3.7852                 1.1888
 Frc consts  --      0.1717                 0.1053                 0.0388
 IR Inten    --      4.0418                 1.2735                 0.1467

                     13                     14                     15
                      A                      A                      A
 Frequencies --    248.0463               293.1371               347.8166
 Red. masses --      4.2133                 5.6885                 6.8169
 Frc consts  --      0.1527                 0.2880                 0.4859
 IR Inten    --      0.4374                 3.6147                 3.4420

                     16                     17                     18
                      A                      A                      A
 Frequencies --    357.0847               373.0815               394.4075
 Red. masses --      4.9863                 7.3118                 6.8113
 Frc consts  --      0.3746                 0.5996                 0.6243
 IR Inten    --     20.2275                 1.3958                20.0500

                     19                     20                     21
                      A                      A                      A
 Frequencies --    439.1715               471.4094               480.3833
 Red. masses --      3.2291                 5.3857                 7.9622
 Frc consts  --      0.3669                 0.7052                 1.0826
 IR Inten    --      0.0789                 2.0454                 0.9191

                     22                     23                     24
                      A                      A                      A
 Frequencies --    525.3665               544.3652               608.7110
 Red. masses --      3.1875                 4.4526                 3.0353
 Frc consts  --      0.5184                 0.7774                 0.6626
 IR Inten    --      1.7217                13.5455                65.7218

                     25                     26                     27
                      A                      A                      A
 Frequencies --    620.7645               649.1526               658.1266
 Red. masses --      7.7883                 3.3438                 5.2404
 Frc consts  --      1.7683                 0.8302                 1.3373
 IR Inten    --      8.3337                56.1377                21.5893

                     28                     29                     30
                      A                      A                      A
 Frequencies --    675.6561               727.4610               751.9598
 Red. masses --      6.1522                 4.2627                 1.1564
 Frc consts  --      1.6548                 1.3291                 0.3853
 IR Inten    --      8.9260                 1.0471                 5.7567

                     31                     32                     33
                      A                      A                      A
 Frequencies --    781.6719               800.8837               815.7546
 Red. masses --      2.6933                 8.3179                 6.4941
 Frc consts  --      0.9696                 3.1434                 2.5462
 IR Inten    --     16.4768                27.1556                27.8039

                     34                     35                     36
                      A                      A                      A
 Frequencies --    830.4736               863.2036               871.3271
 Red. masses --      1.3323                 3.5050                 2.4672
 Frc consts  --      0.5414                 1.5387                 1.1036
 IR Inten    --      0.6088                39.2792                45.2779

                     37                     38                     39
                      A                      A                      A
 Frequencies --    891.6819               922.4343               943.0387
 Red. masses --      1.2721                 1.6635                 9.8605
 Frc consts  --      0.5959                 0.8340                 5.1667
 IR Inten    --     18.3209                 1.1515                 8.3492

                     40                     41                     42
                      A                      A                      A
 Frequencies --    962.1108               987.0815              1010.6393
 Red. masses --      1.3430                 1.2968                 3.8494
 Frc consts  --      0.7325                 0.7444                 2.3165
 IR Inten    --      2.5481                 1.6274               121.7279

                     43                     44                     45
                      A                      A                      A
 Frequencies --   1024.4413              1069.9217              1124.9752
 Red. masses --      2.7029                 2.5910                 1.2335
 Frc consts  --      1.6713                 1.7475                 0.9198
 IR Inten    --      0.5545                13.2586                20.1776

                     46                     47                     48
                      A                      A                      A
 Frequencies --   1143.6287              1157.0628              1175.1913
 Red. masses --      2.1096                 1.7443                 1.1789
 Frc consts  --      1.6257                 1.3759                 0.9593
 IR Inten    --     58.1848                39.0492                54.0033

                     49                     50                     51
                      A                      A                      A
 Frequencies --   1195.9265              1216.8040              1231.2472
 Red. masses --      2.7504                12.4666                 2.8447
 Frc consts  --      2.3177                10.8753                 2.5409
 IR Inten    --     72.4136               286.8537                16.8256

                     52                     53                     54
                      A                      A                      A
 Frequencies --   1251.1672              1268.3710              1276.8483
 Red. masses --      2.3412                10.6953                 1.5722
 Frc consts  --      2.1593                10.1376                 1.5102
 IR Inten    --    170.9448               474.2578               342.6827

                     55                     56                     57
                      A                      A                      A
 Frequencies --   1309.1500              1314.2240              1324.0761
 Red. masses --      1.4704                 1.2040                 4.7551
 Frc consts  --      1.4848                 1.2252                 4.9118
 IR Inten    --     10.5183                42.2382                76.9809

                     58                     59                     60
                      A                      A                      A
 Frequencies --   1336.4455              1342.1797              1404.7830
 Red. masses --      1.5244                 4.8257                 1.9554
 Frc consts  --      1.6042                 5.1219                 2.2736
 IR Inten    --    261.8823               861.7099               166.3066

                     61                     62                     63
                      A                      A                      A
 Frequencies --   1425.0445              1441.2950              1471.4755
 Red. masses --      1.3096                 2.8944                 4.0033
 Frc consts  --      1.5669                 3.5426                 5.1071
 IR Inten    --      8.9907               176.2939                90.4373

                     64                     65                     66
                      A                      A                      A
 Frequencies --   1497.8021              1511.4246              1522.3382
 Red. masses --      1.9860                 1.0745                 1.0465
 Frc consts  --      2.6250                 1.4462                 1.4290
 IR Inten    --    713.7058                 6.4492                10.4530

                     67                     68                     69
                      A                      A                      A
 Frequencies --   1523.6404              1533.6418              1555.1811
 Red. masses --      1.0764                 1.0840                 3.1284
 Frc consts  --      1.4723                 1.5022                 4.4579
 IR Inten    --      5.6145                 9.0110               668.0250

                     70                     71                     72
                      A                      A                      A
 Frequencies --   1631.8798              1653.3890              1706.4860
 Red. masses --      7.2977                 6.3778                 7.5226
 Frc consts  --     11.4502                10.2724                12.9070
 IR Inten    --     41.3297               422.9946               283.4641

                     73                     74                     75
                      A                      A                      A
 Frequencies --   2958.0607              3052.2637              3062.8429
 Red. masses --      1.0736                 1.0663                 1.0356
 Frc consts  --      5.5351                 5.8529                 5.7241
 IR Inten    --    141.6309                39.7482                51.8048

                     76                     77                     78
                      A                      A                      A
 Frequencies --   3101.8686              3130.6659              3133.4988
 Red. masses --      1.0954                 1.0984                 1.1009
 Frc consts  --      6.2096                 6.3430                 6.3689
 IR Inten    --     12.2851                41.7853                52.6180

                     79                     80                     81
                      A                      A                      A
 Frequencies --   3140.4675              3209.3201              3210.2164
 Red. masses --      1.0920                 1.0876                 1.0909
 Frc consts  --      6.3456                 6.6003                 6.6240
 IR Inten    --     38.4926                25.5425                15.4476

                     82                     83                     84
                      A                      A                      A
 Frequencies --   3227.8084              3284.4109              3617.9137
 Red. masses --      1.0947                 1.0915                 1.0757
 Frc consts  --      6.7196                 6.9371                 8.2954
 IR Inten    --     19.7944                 4.5455                 8.0763

 - Thermochemistry -
 -------------------
 Temperature   298.150 Kelvin.  Pressure   1.00000 Atm.
 Atom     1 has atomic number  6 and mass  12.00000

 Molecular mass:   261.08509 amu.
 Principal axes and moments of inertia in atomic units:
                           1         2         3
     Eigenvalues --  1004.56136********************
           X            0.99998  -0.00355   0.00474
           Y            0.00348   0.99988   0.01481
           Z           -0.00479  -0.01479   0.99988
 This molecule is an asymmetric top.
 Rotational symmetry number  1.
 Warning -- assumption of classical behavior for rotation
           may cause significant error
 Rotational temperatures (Kelvin)      0.08622     0.00556     0.00541
 Rotational constants (GHZ):           1.79655     0.11580     0.11283
 Zero-point vibrational energy     597381.7 (Joules/Mol)
                                  142.77766 (Kcal/Mol)
 Warning -- explicit consideration of  25 degrees of freedom as
           vibrations may cause significant error
 Vibrational temperatures:     26.95    39.47    56.11    66.67    87.46
          (Kelvin)             97.94   118.52   166.76   205.11   294.78
                              312.64   338.50   356.88   421.76   500.43
                              513.76   536.78   567.46   631.87   678.25
                              691.16   755.88   783.22   875.80   893.14
                              933.98   946.90   972.12  1046.65  1081.90
                             1124.65  1152.29  1173.69  1194.86  1241.96
                             1253.64  1282.93  1327.18  1356.82  1384.26
                             1420.19  1454.08  1473.94  1539.38  1618.59
                             1645.42  1664.75  1690.84  1720.67  1750.71
                             1771.49  1800.15  1824.90  1837.10  1883.57
                             1890.87  1905.05  1922.84  1931.09  2021.17
                             2050.32  2073.70  2117.12  2155.00  2174.60
                             2190.30  2192.18  2206.57  2237.56  2347.91
                             2378.85  2455.25  4255.98  4391.52  4406.74
                             4462.89  4504.32  4508.40  4518.43  4617.49
                             4618.78  4644.09  4725.53  5205.36

 Zero-point correction=                           0.227531 (Hartree/Particle)
 Thermal correction to Energy=                    0.244552
 Thermal correction to Enthalpy=                  0.245497
 Thermal correction to Gibbs Free Energy=         0.179022
 Sum of electronic and zero-point Energies=           -985.391742
 Sum of electronic and thermal Energies=              -985.374720
 Sum of electronic and thermal Enthalpies=            -985.373776
 Sum of electronic and thermal Free Energies=         -985.440251

                     E (Thermal)             CV                S
                      KCal/Mol        Cal/Mol-Kelvin    Cal/Mol-Kelvin
 Total                  153.459             61.802            139.909
 Electronic               0.000              0.000              0.000
 Translational            0.889              2.981             42.579
 Rotational               0.889              2.981             33.881
 Vibrational            151.682             55.841             63.448
 Vibration     1          0.593              1.986              6.764
 Vibration     2          0.593              1.984              6.007
 Vibration     3          0.594              1.981              5.309
 Vibration     4          0.595              1.979              4.968
 Vibration     5          0.597              1.973              4.431
 Vibration     6          0.598              1.969              4.208
 Vibration     7          0.600              1.961              3.834
 Vibration     8          0.608              1.936              3.168
 Vibration     9          0.616              1.911              2.769
 Vibration    10          0.640              1.833              2.089
 Vibration    11          0.646              1.815              1.982
 Vibration    12          0.655              1.787              1.838
 Vibration    13          0.662              1.766              1.744
 Vibration    14          0.688              1.687              1.456
 Vibration    15          0.725              1.580              1.176
 Vibration    16          0.732              1.561              1.135
 Vibration    17          0.744              1.527              1.067
 Vibration    18          0.761              1.482              0.983
 Vibration    19          0.799              1.385              0.829
 Vibration    20          0.828              1.313              0.734
 Vibration    21          0.837              1.294              0.709
 Vibration    22          0.880              1.194              0.598
 Vibration    23          0.900              1.152              0.556
 Vibration    24          0.968              1.013              0.435
 Vibration    25          0.981              0.988              0.415

 Normal termination of Gaussian 09 at Thu Jul 12 20:25:14 2018.
