 Gaussian 09, Revision E.01,

 ----------------------------------------------------------------------
 # M062X/Gen 6D SCF=Tight INT(grid=ultrafine) OPT IOP(2/17=4) Freq=Nora
 man SCRF=(SMD,Solvent=h2o) maxdisk=2147483648
 ----------------------------------------------------------------------

 -----------------------------------
 aryl_urea_OCF3_a1.M062X.SMD.h2o.opt
 -----------------------------------
 Symbolic Z-matrix:
 Charge = -1 Multiplicity = 1

 SCF Done:  E(RM062X) =  -985.668473703     A.U. after   15 cycles
 SCF Done:  E(RM062X) =  -985.694769663     A.U. after   13 cycles
 SCF Done:  E(RM062X) =  -985.696732356     A.U. after   13 cycles
 SCF Done:  E(RM062X) =  -985.697025113     A.U. after   13 cycles
 SCF Done:  E(RM062X) =  -985.697286821     A.U. after   13 cycles
 SCF Done:  E(RM062X) =  -985.697304259     A.U. after   11 cycles
 SCF Done:  E(RM062X) =  -985.697308115     A.U. after    9 cycles
 SCF Done:  E(RM062X) =  -985.697310083     A.U. after   10 cycles
 SCF Done:  E(RM062X) =  -985.663507018     A.U. after   16 cycles
 SCF Done:  E(RM062X) =  -985.697310086     A.U. after    6 cycles
 SCF Done:  E(RM062X) =  -985.699595931     A.U. after   13 cycles
 SCF Done:  E(RM062X) =  -985.699609107     A.U. after   11 cycles
 SCF Done:  E(RM062X) =  -985.699611470     A.U. after   10 cycles
 SCF Done:  E(RM062X) =  -985.699611807     A.U. after    9 cycles
 SCF Done:  E(RM062X) =  -985.699611950     A.U. after    9 cycles
 SCF Done:  E(RM062X) =  -985.699612060     A.U. after    9 cycles
 SCF Done:  E(RM062X) =  -985.699612096     A.U. after    9 cycles
 Optimization completed.
    -- Stationary point found.
 Normal termination of Gaussian 09 at Tue Jul 10 15:54:23 2018.

 ----------------------------------------------------------------------
 #N Geom=AllCheck Guess=TCheck SCRF=Check Test GenChk RM062X/ChkBas Fre
 q
 ----------------------------------------------------------------------

 Structure from the checkpoint file:  "aryl_urea_OCF3_a1.M062X.SMD.h2o.opt.chk"
 -----------------------------------
 aryl_urea_OCF3_a1.M062X.SMD.h2o.opt
 -----------------------------------
 Charge = -1 Multiplicity = 1

 SCF Done:  E(RM062X) =  -985.699612096     A.U. after    1 cycles
 Normal termination of Gaussian 09 at Tue Jul 10 16:39:01 2018.
 Gaussian 09:  ES64L-G09RevE.01 30-Nov-2015

 ----------------------------------------------------------------------
 # M062X/Gen 6D SCF=Tight INT(grid=ultrafine) OPT IOP(2/17=4) Freq=Nora
 man SCRF=(SMD,Solvent=h2o) geom=check guess=read IOP(2/17=4) maxdisk=2
 147483648
 ----------------------------------------------------------------------

 -----------------------------------
 aryl_urea_OCF3_a1.M062X.SMD.h2o.opt
 -----------------------------------
 Structure from the checkpoint file:  "aryl_urea_OCF3_a1.M062X.SMD.h2o.opt.chk"
 Charge = -1 Multiplicity = 1

 SCF Done:  E(RM062X) =  -985.699612096     A.U. after    1 cycles
 Optimization completed.
    -- Stationary point found.
 Normal termination of Gaussian 09 at Tue Jul 10 16:40:01 2018.

 ----------------------------------------------------------------------
 #N Geom=AllCheck Guess=TCheck SCRF=Check Test GenChk RM062X/ChkBas Fre
 q
 ----------------------------------------------------------------------

 Structure from the checkpoint file:  "aryl_urea_OCF3_a1.M062X.SMD.h2o.opt.chk"
 -----------------------------------
 aryl_urea_OCF3_a1.M062X.SMD.h2o.opt
 -----------------------------------
 Charge = -1 Multiplicity = 1

                         Standard orientation:
 ---------------------------------------------------------------------
 Center     Atomic      Atomic             Coordinates (Angstroms)
 Number     Number       Type             X           Y           Z
 ---------------------------------------------------------------------
      1          6           0       -2.412209    0.379912   -0.165788
      2          6           0       -2.002198   -0.931699    0.035873
      3          6           0       -0.643243   -1.229584   -0.064523
      4          6           0        0.328085   -0.253661   -0.355954
      5          6           0       -0.141613    1.062875   -0.565120
      6          6           0       -1.491986    1.376197   -0.469851
      7          7           0        1.650188   -0.652394   -0.516092
      8          6           0        2.626503    0.147969   -0.088212
      9          7           0        3.905716   -0.225435   -0.508961
     10          8           0        2.529652    1.179720    0.647840
     11          6           0        5.055850    0.154526    0.303783
     12          6           0        6.334447   -0.447878   -0.260974
     13          6           0        7.549400   -0.080265    0.585510
     14          1           0       -0.320387   -2.255991    0.087566
     15          1           0        0.563034    1.847009   -0.821053
     16          1           0        3.937650   -1.188028   -0.830226
     17          1           0        4.928338   -0.168874    1.348896
     18          1           0        5.139441    1.245533    0.313832
     19          1           0        6.474328   -0.096322   -1.290619
     20          1           0        6.230107   -1.539953   -0.306882
     21          1           0        7.679457    1.006908    0.631665
     22          1           0        8.465956   -0.510823    0.170595
     23          1           0        7.439003   -0.449098    1.611445
     24          8           0       -3.749839    0.823374   -0.094012
     25          6           0       -4.734769   -0.042671    0.176912
     26          9           0       -5.884706    0.629946    0.172747
     27          9           0       -4.834281   -1.029704   -0.728880
     28          9           0       -4.606809   -0.627858    1.379328
     29          1           0       -2.701965   -1.727003    0.267825
     30          1           0       -1.842223    2.390912   -0.636989
 ---------------------------------------------------------------------

 SCF Done:  E(RM062X) =  -985.699612096     A.U. after    1 cycles

 The electronic state is 1-A.
 Alpha  occ. eigenvalues --  -25.31790 -25.31493 -25.31485 -19.71938 -19.58994
 Alpha  occ. eigenvalues --  -14.75161 -14.70695 -10.87106 -10.64265 -10.62014
 Alpha  occ. eigenvalues --  -10.57696 -10.56147 -10.55806 -10.55450 -10.54511
 Alpha  occ. eigenvalues --  -10.54459 -10.53501 -10.52657  -1.49418  -1.39515
 Alpha  occ. eigenvalues --   -1.39054  -1.24055  -1.13112  -1.00345  -0.98696
 Alpha  occ. eigenvalues --   -0.94367  -0.87136  -0.85594  -0.84350  -0.80281
 Alpha  occ. eigenvalues --   -0.76074  -0.73427  -0.72592  -0.71961  -0.68414
 Alpha  occ. eigenvalues --   -0.66999  -0.65747  -0.62813  -0.59706  -0.59201
 Alpha  occ. eigenvalues --   -0.58843  -0.56671  -0.55611  -0.55124  -0.53972
 Alpha  occ. eigenvalues --   -0.53572  -0.52651  -0.52542  -0.50735  -0.50174
 Alpha  occ. eigenvalues --   -0.49819  -0.48647  -0.48415  -0.47846  -0.45510
 Alpha  occ. eigenvalues --   -0.45141  -0.43770  -0.42530  -0.41144  -0.40247
 Alpha  occ. eigenvalues --   -0.38852  -0.38548  -0.35837  -0.32876  -0.31229
 Alpha  occ. eigenvalues --   -0.30288  -0.29107  -0.23574
 Alpha virt. eigenvalues --    0.01958   0.02298   0.02611   0.03001   0.03874
 Alpha virt. eigenvalues --    0.04117   0.04519   0.04851   0.05283   0.05325
 Alpha virt. eigenvalues --    0.06231   0.06578   0.06948   0.07744   0.08380

 Mulliken charges:
               1
     1  C   -0.215415
     2  C    0.453156
     3  C   -0.661448
     4  C    0.142554
     5  C    0.175961
     6  C   -0.747439
     7  N   -0.665197
     8  C    0.721022
     9  N   -0.615859
    10  O   -0.869346
    11  C   -0.381258
    12  C   -0.348975
    13  C   -0.742628
    14  H    0.238070
    15  H    0.241266
    16  H    0.424879
    17  H    0.204182
    18  H    0.221702
    19  H    0.226170
    20  H    0.220663
    21  H    0.218786
    22  H    0.219596
    23  H    0.219381
    24  O   -0.455186
    25  C    1.263277
    26  F   -0.336796
    27  F   -0.334536
    28  F   -0.333499
    29  H    0.257767
    30  H    0.259150
 Sum of Mulliken charges =  -1.00000

 Dipole moment (field-independent basis, Debye):
    X=             -3.2515    Y=             -2.8398    Z=             -0.5228  Tot=              4.3486
 Quadrupole moment (field-independent basis, Debye-Ang):
   XX=           -132.0246   YY=           -108.7591   ZZ=           -114.9626
   XY=             -8.5432   XZ=             -1.3367   YZ=             -5.8131

  Exact polarizability: 300.543   1.784 222.085  -4.984  -0.180 163.483
 Approx polarizability: 229.819  -0.334 192.296  -5.856  -0.699 141.359

                      1                      2                      3
                      A                      A                      A
 Frequencies --     10.8005                27.0004                38.2906
 Red. masses --      8.6745                 5.3417                 4.3595
 Frc consts  --      0.0006                 0.0023                 0.0038
 IR Inten    --      0.9907                 9.8976                 2.2603

                      4                      5                      6
                      A                      A                      A
 Frequencies --     45.2634                78.1270                90.7542
 Red. masses --      5.2059                 2.0049                 5.7706
 Frc consts  --      0.0063                 0.0072                 0.0280
 IR Inten    --      4.0016                 3.8480                 5.6532

                      7                      8                      9
                      A                      A                      A
 Frequencies --     95.0332               129.3461               139.3487
 Red. masses --      4.7855                 6.5750                 6.1514
 Frc consts  --      0.0255                 0.0648                 0.0704
 IR Inten    --      1.4627                 2.2471                 9.1270

                     10                     11                     12
                      A                      A                      A
 Frequencies --    169.8057               204.2877               240.3368
 Red. masses --      3.2729                 6.0965                 1.3060
 Frc consts  --      0.0556                 0.1499                 0.0444
 IR Inten    --      4.0824                12.4997                 1.6124

                     13                     14                     15
                      A                      A                      A
 Frequencies --    253.8588               310.7952               336.9653
 Red. masses --      3.1369                 7.4268                 4.5042
 Frc consts  --      0.1191                 0.4227                 0.3013
 IR Inten    --      2.2775                17.2783                21.7492

                     16                     17                     18
                      A                      A                      A
 Frequencies --    352.0616               374.0064               427.0834
 Red. masses --      7.2173                 6.7982                 5.2401
 Frc consts  --      0.5271                 0.5603                 0.5631
 IR Inten    --      2.0135                20.2530                13.7733

                     19                     20                     21
                      A                      A                      A
 Frequencies --    430.5406               449.2552               466.0196
 Red. masses --      3.4413                12.1866                 3.8261
 Frc consts  --      0.3758                 1.4492                 0.4896
 IR Inten    --      1.3970                 0.8526                11.7572

                     22                     23                     24
                      A                      A                      A
 Frequencies --    530.1988               530.6993               589.8379
 Red. masses --      4.5973                 2.9982                 2.1780
 Frc consts  --      0.7614                 0.4975                 0.4464
 IR Inten    --      4.2078                28.2267               215.9780

                     25                     26                     27
                      A                      A                      A
 Frequencies --    616.5649               631.4699               648.3790
 Red. masses --     16.9394                 5.1440                 5.1732
 Frc consts  --      3.7941                 1.2085                 1.2813
 IR Inten    --      6.9273                26.0873                28.6435

                     28                     29                     30
                      A                      A                      A
 Frequencies --    704.8011               714.2640               756.8455
 Red. masses --     10.0612                 3.8373                 1.2760
 Frc consts  --      2.9447                 1.1534                 0.4306
 IR Inten    --     24.6898                22.0793                44.4813

                     31                     32                     33
                      A                      A                      A
 Frequencies --    771.5292               789.5730               817.6485
 Red. masses --      3.0759                 5.1326                 5.9903
 Frc consts  --      1.0788                 1.8853                 2.3596
 IR Inten    --    127.7594                21.4265                36.2188

                     34                     35                     36
                      A                      A                      A
 Frequencies --    832.3620               858.6757               884.6361
 Red. masses --      1.2678                 2.3461                 4.5436
 Frc consts  --      0.5175                 1.0192                 2.0950
 IR Inten    --      3.3525               110.3176                35.5140

                     37                     38                     39
                      A                      A                      A
 Frequencies --    904.7521               933.4985               955.3215
 Red. masses --      1.1686                 1.6396                10.8930
 Frc consts  --      0.5636                 0.8418                 5.8573
 IR Inten    --     22.3566                 1.8998                23.9570

                     40                     41                     42
                      A                      A                      A
 Frequencies --    964.9774               987.0450              1026.1130
 Red. masses --      1.3394                 1.3313                 4.8538
 Frc consts  --      0.7349                 0.7642                 3.0111
 IR Inten    --      0.2145                 1.0892               101.8192

                     43                     44                     45
                      A                      A                      A
 Frequencies --   1032.3073              1079.8325              1135.6203
 Red. masses --      2.4700                 2.5147                 1.5356
 Frc consts  --      1.5509                 1.7276                 1.1668
 IR Inten    --      3.7884                27.6896                64.1400

                     46                     47                     48
                      A                      A                      A
 Frequencies --   1138.2385              1163.7947              1175.5581
 Red. masses --      1.6029                 1.8457                12.9610
 Frc consts  --      1.2236                 1.4729                10.5531
 IR Inten    --     47.7793                 4.4658               577.0217

                     49                     50                     51
                      A                      A                      A
 Frequencies --   1182.4383              1196.9434              1229.8121
 Red. masses --      2.4222                 1.2139                 9.4858
 Frc consts  --      1.9953                 1.0246                 8.4528
 IR Inten    --    172.1397                 9.1540               561.5567

                     52                     53                     54
                      A                      A                      A
 Frequencies --   1259.2608              1271.9810              1282.3759
 Red. masses --      1.5138                 7.3665                 1.7889
 Frc consts  --      1.4144                 7.0222                 1.7333
 IR Inten    --     34.6154              1041.3145                41.8677

                     55                     56                     57
                      A                      A                      A
 Frequencies --   1302.8041              1316.7642              1324.7967
 Red. masses --      4.7212                 1.3273                 1.3505
 Frc consts  --      4.7213                 1.3559                 1.3965
 IR Inten    --    401.5219                42.1277               211.1479

                     58                     59                     60
                      A                      A                      A
 Frequencies --   1336.4706              1357.0410              1395.0501
 Red. masses --      1.4486                 3.5964                 2.4165
 Frc consts  --      1.5245                 3.9021                 2.7709
 IR Inten    --     14.4848               655.0561               249.3854

                     61                     62                     63
                      A                      A                      A
 Frequencies --   1420.7672              1440.6115              1461.0027
 Red. masses --      1.3459                 2.5918                 3.1460
 Frc consts  --      1.6007                 3.1692                 3.9565
 IR Inten    --     52.8789               478.4007                95.2305

                     64                     65                     66
                      A                      A                      A
 Frequencies --   1475.8114              1491.1359              1503.7352
 Red. masses --      2.4095                 1.0764                 1.0402
 Frc consts  --      3.0920                 1.4102                 1.3858
 IR Inten    --    387.0209                 6.6594                10.4243

                     67                     68                     69
                      A                      A                      A
 Frequencies --   1513.4877              1532.8462              1544.8965
 Red. masses --      1.1025                 1.1066                 3.1375
 Frc consts  --      1.4879                 1.5320                 4.4120
 IR Inten    --     33.6924                 0.5390              1718.3041

                     70                     71                     72
                      A                      A                      A
 Frequencies --   1576.7953              1655.7515              1688.9324
 Red. masses --      3.6193                 7.4575                 6.6668
 Frc consts  --      5.3019                12.0458                11.2045
 IR Inten    --    647.3643                 6.1461                11.0222

                     73                     74                     75
                      A                      A                      A
 Frequencies --   3030.3316              3066.9820              3074.9575
 Red. masses --      1.0712                 1.0614                 1.0364
 Frc consts  --      5.7955                 5.8825                 5.7738
 IR Inten    --    111.4179                54.9790                43.2657

                     76                     77                     78
                      A                      A                      A
 Frequencies --   3103.7965              3125.8314              3143.5717
 Red. masses --      1.0982                 1.0954                 1.1035
 Frc consts  --      6.2336                 6.3059                 6.4248
 IR Inten    --     21.0387                60.8581               103.5921

                     79                     80                     81
                      A                      A                      A
 Frequencies --   3152.5700              3226.1027              3233.9190
 Red. masses --      1.1021                 1.0904                 1.0904
 Frc consts  --      6.4536                 6.6862                 6.7189
 IR Inten    --     53.9549                16.4760                 7.1613

                     82                     83                     84
                      A                      A                      A
 Frequencies --   3250.6012              3259.4537              3591.2641
 Red. masses --      1.0942                 1.0936                 1.0763
 Frc consts  --      6.8121                 6.8456                 8.1784
 IR Inten    --      5.1075                 1.1464                41.9470

 - Thermochemistry -
 -------------------
 Temperature   298.150 Kelvin.  Pressure   1.00000 Atm.
 Atom     1 has atomic number  6 and mass  12.00000

 Molecular mass:   261.08509 amu.
 Principal axes and moments of inertia in atomic units:
                           1         2         3
     Eigenvalues --   907.16123********************
           X            0.99999  -0.00260   0.00393
           Y            0.00270   0.99968  -0.02520
           Z           -0.00387   0.02521   0.99967
 This molecule is an asymmetric top.
 Rotational symmetry number  1.
 Warning -- assumption of classical behavior for rotation
           may cause significant error
 Rotational temperatures (Kelvin)      0.09548     0.00542     0.00532
 Rotational constants (GHZ):           1.98944     0.11290     0.11079
 Zero-point vibrational energy     597321.9 (Joules/Mol)
                                  142.76335 (Kcal/Mol)
 Warning -- explicit consideration of  25 degrees of freedom as
           vibrations may cause significant error
 Vibrational temperatures:     15.54    38.85    55.09    65.12   112.41
          (Kelvin)            130.57   136.73   186.10   200.49   244.31
                              293.92   345.79   365.25   447.16   484.82
                              506.54   538.11   614.48   619.45   646.38
                              670.50   762.84   763.56   848.64   887.10
                              908.54   932.87  1014.05  1027.67  1088.93
                             1110.06  1136.02  1176.41  1197.58  1235.44
                             1272.79  1301.73  1343.09  1374.49  1388.39
                             1420.14  1476.35  1485.26  1553.64  1633.90
                             1637.67  1674.44  1691.36  1701.26  1722.13
                             1769.42  1811.79  1830.09  1845.05  1874.44
                             1894.53  1906.08  1922.88  1952.48  2007.16
                             2044.16  2072.72  2102.05  2123.36  2145.41
                             2163.54  2177.57  2205.42  2222.76  2268.65
                             2382.25  2429.99  4359.97  4412.70  4424.17
                             4465.67  4497.37  4522.89  4535.84  4641.64
                             4652.88  4676.88  4689.62  5167.02

 Zero-point correction=                           0.227508 (Hartree/Particle)
 Thermal correction to Energy=                    0.244508
 Thermal correction to Enthalpy=                  0.245453
 Thermal correction to Gibbs Free Energy=         0.178943
 Sum of electronic and zero-point Energies=           -985.472104
 Sum of electronic and thermal Energies=              -985.455104
 Sum of electronic and thermal Enthalpies=            -985.454160
 Sum of electronic and thermal Free Energies=         -985.520669

                     E (Thermal)             CV                S
                      KCal/Mol        Cal/Mol-Kelvin    Cal/Mol-Kelvin
 Total                  153.431             61.895            139.982
 Electronic               0.000              0.000              0.000
 Translational            0.889              2.981             42.579
 Rotational               0.889              2.981             33.823
 Vibrational            151.654             55.934             63.580
 Vibration     1          0.593              1.987              7.858
 Vibration     2          0.593              1.984              6.038
 Vibration     3          0.594              1.982              5.346
 Vibration     4          0.595              1.979              5.014
 Vibration     5          0.599              1.964              3.937
 Vibration     6          0.602              1.956              3.644
 Vibration     7          0.603              1.953              3.554
 Vibration     8          0.612              1.924              2.956
 Vibration     9          0.615              1.914              2.813
 Vibration    10          0.625              1.880              2.438
 Vibration    11          0.640              1.834              2.094
 Vibration    12          0.657              1.779              1.800
 Vibration    13          0.665              1.756              1.704
 Vibration    14          0.700              1.653              1.358
 Vibration    15          0.718              1.602              1.226
 Vibration    16          0.729              1.571              1.157
 Vibration    17          0.745              1.525              1.063
 Vibration    18          0.789              1.411              0.868
 Vibration    19          0.792              1.404              0.857
 Vibration    20          0.808              1.363              0.798
 Vibration    21          0.823              1.325              0.749
 Vibration    22          0.885              1.183              0.587
 Vibration    23          0.886              1.182              0.586
 Vibration    24          0.947              1.053              0.467
 Vibration    25          0.976              0.997              0.422

 Normal termination of Gaussian 09 at Tue Jul 10 17:23:04 2018.
