 Gaussian 09, Revision E.01,

 ----------------------------------------------------------------------
 # M062X/Gen 6D SCF=Tight INT(grid=ultrafine) OPT IOP(2/17=4) SCRF=(SMD
 ,Solvent=h2o) maxdisk=2147483648
 ----------------------------------------------------------------------

 ----------------------
 aryl_urea_OCF3.smd.h2o
 ----------------------
 Symbolic Z-matrix:
 Charge =  0 Multiplicity = 1

 SCF Done:  E(RM062X) =  -986.180110667     A.U. after   14 cycles
 SCF Done:  E(RM062X) =  -986.181190673     A.U. after   12 cycles
 SCF Done:  E(RM062X) =  -986.181587078     A.U. after   13 cycles
 SCF Done:  E(RM062X) =  -986.181706393     A.U. after   12 cycles
 SCF Done:  E(RM062X) =  -986.181795461     A.U. after   11 cycles
 SCF Done:  E(RM062X) =  -986.181873525     A.U. after   11 cycles
 SCF Done:  E(RM062X) =  -986.181929921     A.U. after   12 cycles
 SCF Done:  E(RM062X) =  -986.181961493     A.U. after   12 cycles
 SCF Done:  E(RM062X) =  -986.181996086     A.U. after   12 cycles
 SCF Done:  E(RM062X) =  -986.182048640     A.U. after   12 cycles
 SCF Done:  E(RM062X) =  -986.182123397     A.U. after   11 cycles
 SCF Done:  E(RM062X) =  -986.182124032     A.U. after    9 cycles
 SCF Done:  E(RM062X) =  -986.182124178     A.U. after    8 cycles
 SCF Done:  E(RM062X) =  -986.182124260     A.U. after    9 cycles
 SCF Done:  E(RM062X) =  -986.182124299     A.U. after    9 cycles
 SCF Done:  E(RM062X) =  -986.182124317     A.U. after    9 cycles
 SCF Done:  E(RM062X) =  -986.182124328     A.U. after    9 cycles
 SCF Done:  E(RM062X) =  -986.182124352     A.U. after    9 cycles
 SCF Done:  E(RM062X) =  -986.182124375     A.U. after    9 cycles
 Optimization completed.
    -- Stationary point found.
 Normal termination of Gaussian 09 at Mon Jul 16 12:17:27 2018.
 Gaussian 09:  ES64L-G09RevE.01 30-Nov-2015

 ----------------------------------------------------------------------
 # M062X/Gen 6D SCF=Tight INT(grid=ultrafine) Freq=Noraman SCRF=(SMD,So
 lvent=h2o) geom=check guess=read IOP(2/17=4) maxdisk=2147483648
 ----------------------------------------------------------------------

 ----------------------
 aryl_urea_OCF3.smd.h2o
 ----------------------
 Structure from the checkpoint file:  "aryl_urea_OCF3.smd.h2o.chk"
 Charge =  0 Multiplicity = 1

                         Standard orientation:
 ---------------------------------------------------------------------
 Center     Atomic      Atomic             Coordinates (Angstroms)
 Number     Number       Type             X           Y           Z
 ---------------------------------------------------------------------
      1          6           0       -2.451739    0.398226   -0.150696
      2          6           0       -2.037685   -0.922906   -0.034718
      3          6           0       -0.676762   -1.204080   -0.133768
      4          6           0        0.258843   -0.190250   -0.357554
      5          6           0       -0.186049    1.130434   -0.494775
      6          6           0       -1.540401    1.421145   -0.379926
      7          7           0        1.611875   -0.554148   -0.497479
      8          6           0        2.687112    0.182426   -0.044790
      9          7           0        3.880352   -0.449248   -0.115020
     10          8           0        2.575706    1.336892    0.397294
     11          6           0        5.119497    0.252140    0.198405
     12          6           0        6.310851   -0.679075    0.033244
     13          6           0        7.618574    0.040197    0.347676
     14          1           0       -0.339844   -2.232473   -0.034586
     15          1           0        0.516524    1.927536   -0.700322
     16          1           0        1.777012   -1.545256   -0.644261
     17          1           0        3.943116   -1.349020   -0.579663
     18          1           0        5.070967    0.620638    1.228754
     19          1           0        5.229556    1.124283   -0.458527
     20          1           0        6.331335   -1.060775   -0.995178
     21          1           0        6.188251   -1.543350    0.697151
     22          1           0        7.767179    0.893791   -0.322806
     23          1           0        8.473673   -0.632247    0.231774
     24          1           0        7.621234    0.415243    1.377060
     25          8           0       -3.787421    0.824788   -0.063141
     26          6           0       -4.769174   -0.059865    0.179480
     27          9           0       -5.916996    0.610933    0.227517
     28          9           0       -4.877763   -0.996150   -0.775595
     29          9           0       -4.616332   -0.703885    1.346203
     30          1           0       -2.731410   -1.737433    0.137861
     31          1           0       -1.898033    2.440961   -0.481566
 ---------------------------------------------------------------------

 SCF Done:  E(RM062X) =  -986.182124375     A.U. after    1 cycles

 The electronic state is 1-A.
 Alpha  occ. eigenvalues --  -25.32118 -25.31869 -25.31846 -19.72558 -19.62271
 Alpha  occ. eigenvalues --  -14.79879 -14.78593 -10.87539 -10.69215 -10.63451
 Alpha  occ. eigenvalues --  -10.60769 -10.57629 -10.57012 -10.56567 -10.56531
 Alpha  occ. eigenvalues --  -10.56284 -10.54159 -10.52952  -1.49842  -1.39912
 Alpha  occ. eigenvalues --   -1.39467  -1.24684  -1.18172  -1.05980  -1.02985
 Alpha  occ. eigenvalues --   -0.97127  -0.88799  -0.87115  -0.86104  -0.81776
 Alpha  occ. eigenvalues --   -0.77903  -0.74907  -0.73563  -0.72344  -0.70453
 Alpha  occ. eigenvalues --   -0.68994  -0.68367  -0.65851  -0.63208  -0.61473
 Alpha  occ. eigenvalues --   -0.60109  -0.59560  -0.57742  -0.56156  -0.55621
 Alpha  occ. eigenvalues --   -0.55528  -0.54457  -0.53945  -0.52985  -0.52384
 Alpha  occ. eigenvalues --   -0.51710  -0.50999  -0.50511  -0.49884  -0.48347
 Alpha  occ. eigenvalues --   -0.46734  -0.46511  -0.46032  -0.43864  -0.41990
 Alpha  occ. eigenvalues --   -0.41862  -0.39877  -0.39243  -0.37001  -0.36137
 Alpha  occ. eigenvalues --   -0.32630  -0.32091  -0.27360
 Alpha virt. eigenvalues --    0.00812   0.01325   0.01891   0.02432   0.03538
 Alpha virt. eigenvalues --    0.03926   0.04155   0.04349   0.04845   0.05112
 Alpha virt. eigenvalues --    0.05702   0.06041   0.06863   0.07441   0.07744

 Mulliken charges:
               1
     1  C   -0.177143
     2  C    0.421425
     3  C   -0.868237
     4  C    0.373226
     5  C    0.340474
     6  C   -0.784586
     7  N   -0.665490
     8  C    0.649860
     9  N   -0.670483
    10  O   -0.763709
    11  C   -0.206293
    12  C   -0.380928
    13  C   -0.740245
    14  H    0.264379
    15  H    0.268673
    16  H    0.482632
    17  H    0.476597
    18  H    0.237805
    19  H    0.232630
    20  H    0.232208
    21  H    0.234456
    22  H    0.222279
    23  H    0.223412
    24  H    0.222077
    25  O   -0.447347
    26  C    1.272436
    27  F   -0.333118
    28  F   -0.328939
    29  F   -0.330484
    30  H    0.270770
    31  H    0.271667
 Sum of Mulliken charges =  -0.00000

 Dipole moment (field-independent basis, Debye):
    X=              5.4052    Y=             -6.3347    Z=             -2.3560  Tot=              8.6542
 Quadrupole moment (field-independent basis, Debye-Ang):
   XX=            -96.7760   YY=            -98.3251   ZZ=           -108.4992
   XY=            -14.6696   XZ=             -5.6534   YZ=             -1.1090

  Exact polarizability: 269.151  -3.200 214.235  -3.434  -0.529 145.199
 Approx polarizability: 211.261  -4.125 189.116  -4.163  -0.451 128.427

                      1                      2                      3
                      A                      A                      A
 Frequencies --     19.6743                30.2746                36.2440
 Red. masses --      5.5892                 7.2380                 2.8801
 Frc consts  --      0.0013                 0.0039                 0.0022
 IR Inten    --      0.1354                10.2994                 2.5367

                      4                      5                      6
                      A                      A                      A
 Frequencies --     43.3961                57.6856                65.4459
 Red. masses --      3.6678                 4.5705                 3.5193
 Frc consts  --      0.0041                 0.0090                 0.0089
 IR Inten    --      6.8011                26.1866                 6.6880

                      7                      8                      9
                      A                      A                      A
 Frequencies --     87.8007               123.4077               146.3023
 Red. masses --      5.9540                 6.6039                 3.4402
 Frc consts  --      0.0270                 0.0593                 0.0434
 IR Inten    --      2.0471                 4.2552                 8.2778

                     10                     11                     12
                      A                      A                      A
 Frequencies --    147.9496               179.2937               237.7921
 Red. masses --      4.7073                 7.4688                 2.6920
 Frc consts  --      0.0607                 0.1415                 0.0897
 IR Inten    --     16.3721                 2.0263                 4.3474

                     13                     14                     15
                      A                      A                      A
 Frequencies --    242.4956               301.9134               338.0952
 Red. masses --      1.3795                 7.1967                 2.0983
 Frc consts  --      0.0478                 0.3865                 0.1413
 IR Inten    --      1.5881                 4.3454                74.9748

                     16                     17                     18
                      A                      A                      A
 Frequencies --    344.7304               351.5478               370.3157
 Red. masses --      2.3663                 2.7947                 6.8413
 Frc consts  --      0.1657                 0.2035                 0.5528
 IR Inten    --     35.5178                34.4281                24.0883

                     19                     20                     21
                      A                      A                      A
 Frequencies --    402.2487               426.1073               445.9224
 Red. masses --      5.4725                 3.0972                12.9210
 Frc consts  --      0.5217                 0.3313                 1.5138
 IR Inten    --      5.1275                 0.4156                 2.5057

                     22                     23                     24
                      A                      A                      A
 Frequencies --    474.0831               504.1962               528.9424
 Red. masses --      4.7544                 1.2701                 2.5427
 Frc consts  --      0.6296                 0.1902                 0.4191
 IR Inten    --      5.3379               256.4930                11.0010

                     25                     26                     27
                      A                      A                      A
 Frequencies --    538.7310               616.6449               626.0234
 Red. masses --      7.6077                16.5998                 7.7130
 Frc consts  --      1.3009                 3.7190                 1.7810
 IR Inten    --     12.1613                 6.1304                 8.4144

                     28                     29                     30
                      A                      A                      A
 Frequencies --    644.6419               703.8771               714.8048
 Red. masses --      7.1708                10.4817                 4.2881
 Frc consts  --      1.7557                 3.0597                 1.2909
 IR Inten    --      6.2149                 8.2034                 1.1994

                     31                     32                     33
                      A                      A                      A
 Frequencies --    757.1935               767.6816               782.3802
 Red. masses --      1.7433                 2.1404                 5.5262
 Frc consts  --      0.5889                 0.7432                 1.9930
 IR Inten    --     29.5211                 5.5907                23.8366

                     34                     35                     36
                      A                      A                      A
 Frequencies --    823.1463               837.8055               859.1381
 Red. masses --      4.2872                 1.4064                 1.7742
 Frc consts  --      1.7115                 0.5816                 0.7716
 IR Inten    --     32.1219                 2.1397               119.4967

                     37                     38                     39
                      A                      A                      A
 Frequencies --    890.1538               906.6317               931.8146
 Red. masses --      5.0012                 1.1519                 1.6623
 Frc consts  --      2.3348                 0.5578                 0.8504
 IR Inten    --      6.8211                 3.0351                 5.5620

                     40                     41                     42
                      A                      A                      A
 Frequencies --    958.5399               970.4789               993.1961
 Red. masses --     10.5114                 1.3382                 1.3344
 Frc consts  --      5.6902                 0.7426                 0.7756
 IR Inten    --     26.7632                 0.3212                 0.5943

                     43                     44                     45
                      A                      A                      A
 Frequencies --   1038.5451              1051.4832              1085.5468
 Red. masses --      2.6983                 3.9736                 2.5286
 Frc consts  --      1.7147                 2.5884                 1.7556
 IR Inten    --      6.1848                 8.6472                 3.8759

                     46                     47                     48
                      A                      A                      A
 Frequencies --   1145.5300              1152.7802              1172.0829
 Red. masses --      1.6092                 1.7878                 3.1484
 Frc consts  --      1.2442                 1.3998                 2.5483
 IR Inten    --     28.3618                 0.6359                 3.9990

                     49                     50                     51
                      A                      A                      A
 Frequencies --   1181.5673              1183.4870              1211.6109
 Red. masses --      1.6803                12.9713                 1.1451
 Frc consts  --      1.3822                10.7044                 0.9904
 IR Inten    --      4.6333               575.9137                36.1852

                     52                     53                     54
                      A                      A                      A
 Frequencies --   1229.8470              1265.0408              1274.4855
 Red. masses --      8.4222                 2.0398                 4.4294
 Frc consts  --      7.5055                 1.9233                 4.2390
 IR Inten    --    792.4281               957.9980               345.8170

                     55                     56                     57
                      A                      A                      A
 Frequencies --   1280.2071              1298.1010              1327.2632
 Red. masses --      1.2607                 2.2015                 1.0942
 Frc consts  --      1.2174                 2.1857                 1.1357
 IR Inten    --     16.3917                44.2523                 2.8903

                     58                     59                     60
                      A                      A                      A
 Frequencies --   1332.3489              1344.5503              1353.7040
 Red. masses --      1.5808                 2.7672                 2.2556
 Frc consts  --      1.6533                 2.9474                 2.4354
 IR Inten    --    170.6346                 5.4332               223.2837

                     61                     62                     63
                      A                      A                      A
 Frequencies --   1361.8696              1419.2073              1428.1018
 Red. masses --      2.8106                 1.2865                 1.6180
 Frc consts  --      3.0713                 1.5267                 1.9442
 IR Inten    --    281.6476                 2.4068                 3.0026

                     64                     65                     66
                      A                      A                      A
 Frequencies --   1462.9690              1491.5169              1502.7800
 Red. masses --      3.0627                 1.0581                 1.0397
 Frc consts  --      3.8621                 1.3868                 1.3834
 IR Inten    --     77.1976                11.4495                11.9095

                     67                     68                     69
                      A                      A                      A
 Frequencies --   1512.5434              1531.2362              1546.7045
 Red. masses --      1.0861                 1.0911                 1.8459
 Frc consts  --      1.4640                 1.5073                 2.6018
 IR Inten    --     13.4440                47.1210               383.9864

                     70                     71                     72
                      A                      A                      A
 Frequencies --   1571.4476              1583.7833              1683.6312
 Red. masses --      2.9880                 2.5636                 7.5840
 Frc consts  --      4.3475                 3.7887                12.6661
 IR Inten    --   1095.4151               426.2012               462.1464

                     73                     74                     75
                      A                      A                      A
 Frequencies --   1686.6004              1706.2599              3071.0166
 Red. masses --      4.7217                 5.9512                 1.0612
 Frc consts  --      7.9135                10.2080                 5.8967
 IR Inten    --    195.9120               174.5208                 5.8805

                     76                     77                     78
                      A                      A                      A
 Frequencies --   3076.2014              3077.5244              3107.0883
 Red. masses --      1.0556                 1.0421                 1.1007
 Frc consts  --      5.8855                 5.8152                 6.2608
 IR Inten    --     40.4181                97.7202                 4.8304

                     79                     80                     81
                      A                      A                      A
 Frequencies --   3126.7716              3147.3022              3156.4335
 Red. masses --      1.1052                 1.1039                 1.1023
 Frc consts  --      6.3661                 6.4428                 6.4704
 IR Inten    --     53.7762                95.2711                47.7132

                     82                     83                     84
                      A                      A                      A
 Frequencies --   3228.5094              3248.5429              3269.1970
 Red. masses --      1.0920                 1.0927                 1.0938
 Frc consts  --      6.7062                 6.7938                 6.8879
 IR Inten    --      3.6302                 1.8659                 0.9003

                     85                     86                     87
                      A                      A                      A
 Frequencies --   3286.8107              3605.6456              3609.3222
 Red. masses --      1.0934                 1.0790                 1.0788
 Frc consts  --      6.9595                 8.2646                 8.2804
 IR Inten    --      0.5098                11.2042               254.3573

 - Thermochemistry -
 -------------------
 Temperature   298.150 Kelvin.  Pressure   1.00000 Atm.
 Atom     1 has atomic number  6 and mass  12.00000

 Molecular mass:   262.09291 amu.
 Principal axes and moments of inertia in atomic units:
                           1         2         3
     Eigenvalues --   913.15328********************
           X            0.99999  -0.00315   0.00274
           Y            0.00316   0.99998  -0.00453
           Z           -0.00273   0.00454   0.99999
 This molecule is an asymmetric top.
 Rotational symmetry number  1.
 Warning -- assumption of classical behavior for rotation
           may cause significant error
 Rotational temperatures (Kelvin)      0.09485     0.00537     0.00523
 Rotational constants (GHZ):           1.97638     0.11184     0.10899
 Zero-point vibrational energy     631962.9 (Joules/Mol)
                                  151.04276 (Kcal/Mol)
 Warning -- explicit consideration of  26 degrees of freedom as
           vibrations may cause significant error
 Vibrational temperatures:     28.31    43.56    52.15    62.44    83.00
          (Kelvin)             94.16   126.33   177.56   210.50   212.87
                              257.96   342.13   348.90   434.39   486.44
                              495.99   505.80   532.80   578.75   613.07
                              641.58   682.10   725.43   761.03   775.11
                              887.21   900.71   927.49  1012.72  1028.44
                             1089.43  1104.52  1125.67  1184.32  1205.41
                             1236.11  1280.73  1304.44  1340.67  1379.12
                             1396.30  1428.99  1494.23  1512.85  1561.86
                             1648.16  1658.59  1686.36  1700.01  1702.77
                             1743.24  1769.47  1820.11  1833.70  1841.93
                             1867.68  1909.63  1916.95  1934.51  1947.68
                             1959.42  2041.92  2054.72  2104.88  2145.96
                             2162.16  2176.21  2203.10  2225.36  2260.96
                             2278.71  2422.37  2426.64  2454.92  4418.50
                             4425.96  4427.87  4470.40  4498.72  4528.26
                             4541.40  4645.10  4673.92  4703.64  4728.98
                             5187.71  5193.00

 Zero-point correction=                           0.240702 (Hartree/Particle)
 Thermal correction to Energy=                    0.258334
 Thermal correction to Enthalpy=                  0.259278
 Thermal correction to Gibbs Free Energy=         0.191676
 Sum of electronic and zero-point Energies=           -985.941422
 Sum of electronic and thermal Energies=              -985.923790
 Sum of electronic and thermal Enthalpies=            -985.922846
 Sum of electronic and thermal Free Energies=         -985.990449

                     E (Thermal)             CV                S
                      KCal/Mol        Cal/Mol-Kelvin    Cal/Mol-Kelvin
 Total                  162.107             63.773            142.282
 Electronic               0.000              0.000              0.000
 Translational            0.889              2.981             42.590
 Rotational               0.889              2.981             33.856
 Vibrational            160.330             57.811             65.836
 Vibration     1          0.593              1.986              6.667
 Vibration     2          0.594              1.984              5.811
 Vibration     3          0.594              1.982              5.454
 Vibration     4          0.595              1.980              5.098
 Vibration     5          0.596              1.974              4.535
 Vibration     6          0.597              1.971              4.286
 Vibration     7          0.601              1.958              3.708
 Vibration     8          0.610              1.930              3.046
 Vibration     9          0.617              1.907              2.720
 Vibration    10          0.617              1.905              2.698
 Vibration    11          0.629              1.868              2.336
 Vibration    12          0.656              1.783              1.819
 Vibration    13          0.659              1.775              1.784
 Vibration    14          0.694              1.670              1.406
 Vibration    15          0.718              1.599              1.221
 Vibration    16          0.723              1.586              1.190
 Vibration    17          0.728              1.572              1.159
 Vibration    18          0.742              1.533              1.078
 Vibration    19          0.768              1.465              0.954
 Vibration    20          0.788              1.413              0.871
 Vibration    21          0.805              1.370              0.808
 Vibration    22          0.831              1.308              0.726
 Vibration    23          0.859              1.241              0.648
 Vibration    24          0.884              1.186              0.590
 Vibration    25          0.894              1.164              0.568
 Vibration    26          0.976              0.997              0.422

 Optimization completed.
    -- Stationary point found.
 Normal termination of Gaussian 09 at Mon Jul 16 13:06:37 2018.
