 Gaussian 09, Revision E.01,

 ----------------------------------------------------------------------
 # M062X/Gen 6D SCF=Tight INT(grid=ultrafine) OPT IOP(2/17=4) maxdisk=2
 684354560
 ----------------------------------------------------------------------

 ---------------------------------
 3Chloro4TFM_EtO.M062X_6-31pGd_opt
 ---------------------------------
 Symbolic Z-matrix:
 Charge = -1 Multiplicity = 1

 SCF Done:  E(RM062X) =  -1638.33903059     A.U. after   16 cycles
 SCF Done:  E(RM062X) =  -1638.34166658     A.U. after   14 cycles
 SCF Done:  E(RM062X) =  -1638.34176728     A.U. after   16 cycles
 SCF Done:  E(RM062X) =  -1638.33897394     A.U. after   16 cycles
 SCF Done:  E(RM062X) =  -1638.34234855     A.U. after   12 cycles
 SCF Done:  E(RM062X) =  -1638.34289474     A.U. after   14 cycles
 SCF Done:  E(RM062X) =  -1638.34313287     A.U. after   13 cycles
 SCF Done:  E(RM062X) =  -1638.34322945     A.U. after   13 cycles
 SCF Done:  E(RM062X) =  -1638.34325729     A.U. after   12 cycles
 SCF Done:  E(RM062X) =  -1638.34328468     A.U. after   11 cycles
 SCF Done:  E(RM062X) =  -1638.34332786     A.U. after   11 cycles
 SCF Done:  E(RM062X) =  -1638.34332810     A.U. after   11 cycles
 SCF Done:  E(RM062X) =  -1638.34332870     A.U. after   10 cycles
 SCF Done:  E(RM062X) =  -1638.34332930     A.U. after   10 cycles
 SCF Done:  E(RM062X) =  -1638.34332980     A.U. after   10 cycles
 SCF Done:  E(RM062X) =  -1638.34333008     A.U. after   10 cycles
 SCF Done:  E(RM062X) =  -1638.34333031     A.U. after   10 cycles
 SCF Done:  E(RM062X) =  -1638.34333038     A.U. after    9 cycles
 Optimization completed.
    -- Stationary point found.
 Normal termination of Gaussian 09 at Tue Feb 19 18:37:52 2019.
 Gaussian 09:  ES64L-G09RevE.01 30-Nov-2015

 ----------------------------------------------------------------------
 # M062X/Gen 6D SCF=Tight INT(grid=ultrafine) OPT IOP(2/17=4) Freq=Nora
 man maxdisk=2684354560 geom=check guess=read IOP(2/17=4)
 ----------------------------------------------------------------------

 ---------------------------------
 3Chloro4TFM_EtO.M062X_6-31pGd_opt
 ---------------------------------
 Structure from the checkpoint file:  "3Chloro4TFM_EtO.M062X_6-31pGd_opt.chk"
 Charge = -1 Multiplicity = 1

 SCF Done:  E(RM062X) =  -1638.34333038     A.U. after    1 cycles
 Optimization completed.
    -- Stationary point found.
 Normal termination of Gaussian 09 at Tue Feb 19 18:38:45 2019.

 ----------------------------------------------------------------------
 #N Geom=AllCheck Guess=TCheck SCRF=Check Test GenChk RM062X/ChkBas Fre
 q
 ----------------------------------------------------------------------

 Structure from the checkpoint file:  "3Chloro4TFM_EtO.M062X_6-31pGd_opt.chk"
 ---------------------------------
 3Chloro4TFM_EtO.M062X_6-31pGd_opt
 ---------------------------------
 Charge = -1 Multiplicity = 1

                         Standard orientation:
 ---------------------------------------------------------------------
 Center     Atomic      Atomic             Coordinates (Angstroms)
 Number     Number       Type             X           Y           Z
 ---------------------------------------------------------------------
      1          6           0        6.067841   -3.176314   -0.031278
      2          6           0        5.103651   -1.992860   -0.061711
      3          6           0        3.651633   -2.448784    0.028667
      4          7           0        2.774322   -1.300718    0.003443
      5          6           0        1.432674   -1.470737    0.009318
      6          8           0        0.889908   -2.578090    0.022593
      7          7           0        0.738665   -0.264954   -0.003450
      8          6           0       -0.622974   -0.086631   -0.003206
      9          6           0       -1.567154   -1.133532    0.009836
     10          6           0       -1.090268    1.246386   -0.017661
     11          6           0       -2.445385    1.513950   -0.019175
     12          6           0       -3.394917    0.484365   -0.006619
     13          6           0       -2.919547   -0.829992    0.007933
     14          1           0        7.109113   -2.844639   -0.099128
     15          1           0        5.878397   -3.860622   -0.866880
     16          1           0        5.958464   -3.749768    0.896896
     17          1           0        5.239277   -1.411637   -0.981535
     18          1           0        5.316665   -1.302721    0.763132
     19          1           0        3.492784   -3.029721    0.949620
     20          1           0        3.409076   -3.121130   -0.806272
     21          1           0        3.196073   -0.354241    0.014316
     22          1           0        1.300679    0.615822   -0.014367
     23          1           0       -1.231772   -2.161403    0.020865
     24          1           0       -0.359662    2.051264   -0.027495
     25          1           0       -2.785995    2.543876   -0.030544
     26         17           0       -4.041668   -2.175871    0.024388
     27          6           0       -4.854771    0.806998   -0.008928
     28          9           0       -5.508863    0.308735   -1.080337
     29          9           0       -5.072654    2.139966   -0.026475
     30          9           0       -5.506054    0.337700    1.077251
     31          8           0        4.051537    1.211072    0.032121
     32          8           0        2.024711    2.176370   -0.028398
     33          6           0        3.286859    2.206307    0.001453
     34          6           0        3.922439    3.605706   -0.001757
     35          6           0        5.445339    3.603029    0.043365
     36          1           0        3.502312    4.152092    0.851702
     37          1           0        3.554537    4.123674   -0.896163
     38          1           0        5.803507    3.092184    0.941877
     39          1           0        5.844965    4.624607    0.037896
     40          1           0        5.855383    3.062109   -0.814377
 ---------------------------------------------------------------------

 SCF Done:  E(RM062X) =  -1638.34333038     A.U. after    1 cycles

 The electronic state is 1-A.
 Alpha  occ. eigenvalues -- -102.58175 -25.21294 -25.20593 -25.20592 -19.49349
 Alpha  occ. eigenvalues --  -19.47352 -19.47100 -14.67018 -14.65195 -10.72121
 Alpha  occ. eigenvalues --  -10.56286 -10.53277 -10.52109 -10.51151 -10.48350
 Alpha  occ. eigenvalues --  -10.47709 -10.47397 -10.45820 -10.45612 -10.45507
 Alpha  occ. eigenvalues --  -10.44896 -10.43251 -10.43206  -9.72835  -7.45236
 Alpha  occ. eigenvalues --   -7.44583  -7.44560  -1.37385  -1.28227  -1.27740
 Alpha  occ. eigenvalues --   -1.05509  -1.03567  -0.94350  -0.93746  -0.91353
 Alpha  occ. eigenvalues --   -0.89942  -0.84167  -0.79347  -0.77722  -0.75312
 Alpha  occ. eigenvalues --   -0.74224  -0.71133  -0.67889  -0.63153  -0.61852
 Alpha  occ. eigenvalues --   -0.61471  -0.59658  -0.59181  -0.58466  -0.56078
 Alpha  occ. eigenvalues --   -0.55278  -0.51258  -0.49824  -0.48089  -0.47881
 Alpha  occ. eigenvalues --   -0.46640  -0.45381  -0.44766  -0.44089  -0.43786
 Alpha  occ. eigenvalues --   -0.43344  -0.42626  -0.41833  -0.41828  -0.41109
 Alpha  occ. eigenvalues --   -0.41074  -0.40219  -0.40058  -0.39150  -0.38028
 Alpha  occ. eigenvalues --   -0.37476  -0.36693  -0.35839  -0.35235  -0.34409
 Alpha  occ. eigenvalues --   -0.33955  -0.32964  -0.32198  -0.31699  -0.31173
 Alpha  occ. eigenvalues --   -0.30566  -0.30033  -0.29091  -0.28732  -0.26966
 Alpha  occ. eigenvalues --   -0.22937  -0.21258  -0.20377  -0.19817  -0.19538
 Alpha  occ. eigenvalues --   -0.19386  -0.16124
 Alpha virt. eigenvalues --    0.10003   0.10182   0.10273   0.10866   0.10932
 Alpha virt. eigenvalues --    0.11139   0.12051   0.12498   0.13123   0.13197
 Alpha virt. eigenvalues --    0.13461   0.13793   0.14690   0.14881   0.15220

 Mulliken charges:
               1
     1  C   -0.790236
     2  C   -0.344184
     3  C   -0.166788
     4  N   -0.780328
     5  C    0.808955
     6  O   -0.606134
     7  N   -0.649095
     8  C   -0.201932
     9  C   -0.225495
    10  C   -0.396224
    11  C   -0.041137
    12  C   -1.440275
    13  C    0.476002
    14  H    0.198504
    15  H    0.199559
    16  H    0.200191
    17  H    0.235460
    18  H    0.243142
    19  H    0.209550
    20  H    0.214126
    21  H    0.527714
    22  H    0.515171
    23  H    0.291833
    24  H    0.276967
    25  H    0.222241
    26  Cl   0.185915
    27  C    1.547573
    28  F   -0.278981
    29  F   -0.351413
    30  F   -0.278774
    31  O   -0.627224
    32  O   -0.676565
    33  C    0.706751
    34  C   -0.485614
    35  C   -0.742559
    36  H    0.209724
    37  H    0.209732
    38  H    0.214757
    39  H    0.173690
    40  H    0.215405
 Sum of Mulliken charges =  -1.00000

 Dipole moment (field-independent basis, Debye):
    X=             -1.1754    Y=              0.1038    Z=             -0.0410  Tot=              1.1806
 Quadrupole moment (field-independent basis, Debye-Ang):
   XX=           -215.2161   YY=           -168.5876   ZZ=           -148.1817
   XY=            -10.1876   XZ=             -0.1891   YZ=              0.1608

  Exact polarizability: 302.734  -4.561 226.691   0.262  -1.014 134.012
 Approx polarizability: 298.986  -2.977 266.268   0.384  -1.377 176.083

                      1                      2                      3
                      A                      A                      A
 Frequencies --     12.0472                19.6052                28.0228
 Red. masses --      3.8820                 4.3858                 3.1205
 Frc consts  --      0.0003                 0.0010                 0.0014
 IR Inten    --      0.0082                 0.8121                 0.0971

                      4                      5                      6
                      A                      A                      A
 Frequencies --     36.1597                41.2677                49.7184
 Red. masses --      2.3044                 4.9705                 6.7286
 Frc consts  --      0.0018                 0.0050                 0.0098
 IR Inten    --      0.0070                 0.5092                 1.9075

                      7                      8                      9
                      A                      A                      A
 Frequencies --     50.8896                58.9230                63.7070
 Red. masses --      8.9259                 4.3946                 3.2308
 Frc consts  --      0.0136                 0.0090                 0.0077
 IR Inten    --      0.7296                 1.6950                 0.1511

                     10                     11                     12
                      A                      A                      A
 Frequencies --     68.2677                81.3625                97.0901
 Red. masses --      6.9258                 5.4763                 6.7199
 Frc consts  --      0.0190                 0.0214                 0.0373
 IR Inten    --      0.8044                 6.7576                 4.7169

                     13                     14                     15
                      A                      A                      A
 Frequencies --    121.0371               138.9985               158.2617
 Red. masses --      4.7871                 8.3690                17.0973
 Frc consts  --      0.0413                 0.0953                 0.2523
 IR Inten    --      1.3054                11.6242                 3.3032

                     16                     17                     18
                      A                      A                      A
 Frequencies --    170.0547               181.3101               190.2536
 Red. masses --      3.4098                 4.9139                 6.3879
 Frc consts  --      0.0581                 0.0952                 0.1362
 IR Inten    --      5.8474                19.3816                 0.9334

                     19                     20                     21
                      A                      A                      A
 Frequencies --    210.9208               219.8938               239.9760
 Red. masses --      6.8615                 1.1266                 2.8313
 Frc consts  --      0.1799                 0.0321                 0.0961
 IR Inten    --      1.7246                 0.5104                 0.1111

                     22                     23                     24
                      A                      A                      A
 Frequencies --    243.1527               268.3339               298.7808
 Red. masses --      1.4974                 6.1686                 4.0347
 Frc consts  --      0.0522                 0.2617                 0.2122
 IR Inten    --      0.0782                 6.1798                13.3349

                     25                     26                     27
                      A                      A                      A
 Frequencies --    320.3746               344.6113               386.5123
 Red. masses --     12.2978                 4.8951                 7.6206
 Frc consts  --      0.7437                 0.3425                 0.6708
 IR Inten    --      0.9854                 9.2549                17.2580

                     28                     29                     30
                      A                      A                      A
 Frequencies --    419.0488               423.7801               457.9827
 Red. masses --      7.3924                 6.0099                 3.8632
 Frc consts  --      0.7648                 0.6359                 0.4774
 IR Inten    --      0.6845                 5.4833                 2.1429

                     31                     32                     33
                      A                      A                      A
 Frequencies --    467.6998               514.3496               524.1607
 Red. masses --      9.1983                 5.4003                 5.5885
 Frc consts  --      1.1855                 0.8417                 0.9046
 IR Inten    --     13.2195                49.8065                12.7227

                     34                     35                     36
                      A                      A                      A
 Frequencies --    564.8409               582.2809               593.1688
 Red. masses --     13.2980                 1.9712                10.8825
 Frc consts  --      2.4997                 0.3938                 2.2560
 IR Inten    --      1.0469                 0.4520                 0.6482

                     37                     38                     39
                      A                      A                      A
 Frequencies --    638.2977               650.3087               659.1928
 Red. masses --      3.8258                 6.9829                 4.7206
 Frc consts  --      0.9184                 1.7399                 1.2086
 IR Inten    --      5.7928                20.0052                32.3536

                     40                     41                     42
                      A                      A                      A
 Frequencies --    717.7323               737.5740               748.9258
 Red. masses --      7.8334                 4.8009                 1.1510
 Frc consts  --      2.3775                 1.5388                 0.3804
 IR Inten    --     25.7048                 0.1088                 6.1972

                     43                     44                     45
                      A                      A                      A
 Frequencies --    767.8350               769.9518               789.1797
 Red. masses --      4.3765                 4.4745                 7.8524
 Frc consts  --      1.5202                 1.5629                 2.8814
 IR Inten    --     16.9847                20.2417                 7.8566

                     46                     47                     48
                      A                      A                      A
 Frequencies --    812.0010               823.2618               868.2730
 Red. masses --      1.3524                 1.4097                 1.3928
 Frc consts  --      0.5254                 0.5629                 0.6187
 IR Inten    --      2.1256                12.3881                13.3852

                     49                     50                     51
                      A                      A                      A
 Frequencies --    888.9463               902.2991               921.3118
 Red. masses --      4.0525                 1.1570                 1.9334
 Frc consts  --      1.8868                 0.5550                 0.9669
 IR Inten    --     42.4771                 4.0412                 8.7538

                     52                     53                     54
                      A                      A                      A
 Frequencies --    922.7071               949.9949               972.3745
 Red. masses --      1.4112                 4.1077                 1.0979
 Frc consts  --      0.7079                 2.1842                 0.6116
 IR Inten    --     31.0850                 4.7197                85.8591

                     55                     56                     57
                      A                      A                      A
 Frequencies --   1009.2203              1022.2987              1036.0090
 Red. masses --      1.2685                 1.6633                 5.1782
 Frc consts  --      0.7613                 1.0242                 3.2746
 IR Inten    --      9.2369                 3.3137                16.7603

                     58                     59                     60
                      A                      A                      A
 Frequencies --   1050.7972              1083.1709              1107.3262
 Red. masses --      4.0799                 2.7159                 1.7779
 Frc consts  --      2.6542                 1.8774                 1.2844
 IR Inten    --     39.6362                15.3834                 0.8303

                     61                     62                     63
                      A                      A                      A
 Frequencies --   1113.2652              1137.1502              1155.6687
 Red. masses --      2.3711                 2.6073                 2.4393
 Frc consts  --      1.7314                 1.9864                 1.9195
 IR Inten    --      3.4536               223.2335                36.5173

                     64                     65                     66
                      A                      A                      A
 Frequencies --   1177.1451              1183.1891              1191.2672
 Red. masses --      2.5735                 1.6304                12.8856
 Frc consts  --      2.1010                 1.3447                10.7739
 IR Inten    --     66.0080                 0.8036               270.8592

                     67                     68                     69
                      A                      A                      A
 Frequencies --   1198.0140              1218.8806              1275.3380
 Red. masses --      4.3769                 1.9142                 1.1888
 Frc consts  --      3.7012                 1.6756                 1.1392
 IR Inten    --      4.7565               123.1656                 1.3416

                     70                     71                     72
                      A                      A                      A
 Frequencies --   1282.2151              1285.5746              1308.8674
 Red. masses --      1.5112                 1.1884                 1.9930
 Frc consts  --      1.4638                 1.1572                 2.0116
 IR Inten    --      1.8666                 0.2626               425.0809

                     73                     74                     75
                      A                      A                      A
 Frequencies --   1328.3757              1331.0244              1332.5313
 Red. masses --      1.9073                 1.2406                 1.6712
 Frc consts  --      1.9829                 1.2949                 1.7484
 IR Inten    --     24.2200                13.8021                68.2140

                     76                     77                     78
                      A                      A                      A
 Frequencies --   1359.6928              1373.7130              1399.2534
 Red. masses --      2.7178                 2.4284                 5.3757
 Frc consts  --      2.9603                 2.6999                 6.2013
 IR Inten    --    743.0176                86.6386               430.4636

                     79                     80                     81
                      A                      A                      A
 Frequencies --   1422.4516              1425.3695              1437.0139
 Red. masses --      1.3067                 1.3257                 1.6387
 Frc consts  --      1.5577                 1.5869                 1.9938
 IR Inten    --     13.0860                14.9204                 8.2929

                     82                     83                     84
                      A                      A                      A
 Frequencies --   1460.3121              1473.1978              1490.4092
 Red. masses --      4.0656                 3.9553                 1.2073
 Frc consts  --      5.1082                 5.0576                 1.5801
 IR Inten    --     76.6506               369.8955                23.0729

                     85                     86                     87
                      A                      A                      A
 Frequencies --   1510.0091              1511.7136              1522.9795
 Red. masses --      1.0720                 1.0400                 1.0991
 Frc consts  --      1.4402                 1.4003                 1.5021
 IR Inten    --     10.3007                 5.0983                53.2545

                     88                     89                     90
                      A                      A                      A
 Frequencies --   1524.6702              1528.7336              1542.9881
 Red. masses --      1.0401                 1.0677                 1.0838
 Frc consts  --      1.4246                 1.4701                 1.5203
 IR Inten    --      6.9413                 1.5226                10.5456

                     91                     92                     93
                      A                      A                      A
 Frequencies --   1574.3138              1604.5930              1634.1931
 Red. masses --      3.2913                 4.2400                 2.2937
 Frc consts  --      4.8062                 6.4320                 3.6091
 IR Inten    --    104.5721               159.4205                69.7620

                     94                     95                     96
                      A                      A                      A
 Frequencies --   1678.3609              1688.3823              1721.3794
 Red. masses --      6.5139                 2.3922                 3.5085
 Frc consts  --     10.8108                 4.0178                 6.1253
 IR Inten    --    707.9156               427.5060               596.5760

                     97                     98                     99
                      A                      A                      A
 Frequencies --   1793.4182              3018.5151              3035.6065
 Red. masses --      3.0999                 1.0989                 1.0622
 Frc consts  --      5.8745                 5.8992                 5.7667
 IR Inten    --    407.0750              1177.7722               116.8081

                    100                    101                    102
                      A                      A                      A
 Frequencies --   3064.3058              3064.8537              3067.3758
 Red. masses --      1.0764                 1.0585                 1.0453
 Frc consts  --      5.9551                 5.8580                 5.7944
 IR Inten    --     28.3131                62.4436                49.3141

                    103                    104                    105
                      A                      A                      A
 Frequencies --   3075.4658              3085.2516              3107.9365
 Red. masses --      1.0567                 1.0612                 1.1013
 Frc consts  --      5.8888                 5.9513                 6.2676
 IR Inten    --     33.6705                18.0931                14.6402

                    106                    107                    108
                      A                      A                      A
 Frequencies --   3115.1093              3138.7570              3138.7866
 Red. masses --      1.1025                 1.0979                 1.1020
 Frc consts  --      6.3036                 6.3727                 6.3966
 IR Inten    --      0.1119                61.2999                65.3895

                    109                    110                    111
                      A                      A                      A
 Frequencies --   3139.7317              3160.5060              3200.8535
 Red. masses --      1.1009                 1.1022                 1.0917
 Frc consts  --      6.3943                 6.4865                 6.5901
 IR Inten    --     34.8802                37.7346              1570.5642

                    112                    113                    114
                      A                      A                      A
 Frequencies --   3226.4449              3248.2331              3300.3430
 Red. masses --      1.0916                 1.0932                 1.0915
 Frc consts  --      6.6954                 6.7960                 7.0046
 IR Inten    --     71.2725                 3.5342                19.9414

 - Thermochemistry -
 -------------------
 Temperature   298.150 Kelvin.  Pressure   1.00000 Atm.
 Atom     1 has atomic number  6 and mass  12.00000

 Molecular mass:   353.08798 amu.
 Principal axes and moments of inertia in atomic units:
                           1         2         3
     Eigenvalues --  5026.59467********************
           X            1.00000  -0.00199  -0.00004
           Y            0.00199   1.00000   0.00047
           Z            0.00004  -0.00047   1.00000
 This molecule is an asymmetric top.
 Rotational symmetry number  1.
 Warning -- assumption of classical behavior for rotation
           may cause significant error
 Rotational temperatures (Kelvin)      0.01723     0.00457     0.00367
 Rotational constants (GHZ):           0.35904     0.09524     0.07646
 Zero-point vibrational energy     806758.9 (Joules/Mol)
                                  192.82002 (Kcal/Mol)
 Warning -- explicit consideration of  36 degrees of freedom as
           vibrations may cause significant error
 Vibrational temperatures:     17.33    28.21    40.32    52.03    59.37
          (Kelvin)             71.53    73.22    84.78    91.66    98.22
                              117.06   139.69   174.15   199.99   227.70
                              244.67   260.86   273.73   303.47   316.38
                              345.27   349.84   386.07   429.88   460.95
                              495.82   556.10   602.92   609.72   658.93
                              672.91   740.03   754.15   812.68   837.77
                              853.44   918.37   935.65   948.43  1032.66
                             1061.20  1077.54  1104.74  1107.79  1135.45
                             1168.29  1184.49  1249.25  1278.99  1298.21
                             1325.56  1327.57  1366.83  1399.03  1452.04
                             1470.86  1490.58  1511.86  1558.44  1593.19
                             1601.74  1636.10  1662.75  1693.65  1702.34
                             1713.97  1723.67  1753.70  1834.92  1844.82
                             1849.65  1883.17  1911.23  1915.04  1917.21
                             1956.29  1976.46  2013.21  2046.59  2050.79
                             2067.54  2101.06  2119.60  2144.36  2172.56
                             2175.02  2191.23  2193.66  2199.50  2220.01
                             2265.08  2308.65  2351.24  2414.78  2429.20
                             2476.68  2580.33  4342.96  4367.56  4408.85
                             4409.64  4413.26  4424.90  4438.98  4471.62
                             4481.94  4515.97  4516.01  4517.37  4547.26
                             4605.31  4642.13  4673.48  4748.45

 Zero-point correction=                           0.307278 (Hartree/Particle)
 Thermal correction to Energy=                    0.331927
 Thermal correction to Enthalpy=                  0.332871
 Thermal correction to Gibbs Free Energy=         0.246770
 Sum of electronic and zero-point Energies=          -1638.036052
 Sum of electronic and thermal Energies=             -1638.011404
 Sum of electronic and thermal Enthalpies=           -1638.010460
 Sum of electronic and thermal Free Energies=        -1638.096561

                     E (Thermal)             CV                S
                      KCal/Mol        Cal/Mol-Kelvin    Cal/Mol-Kelvin
 Total                  208.287             85.569            181.215
 Electronic               0.000              0.000              0.000
 Translational            0.889              2.981             43.478
 Rotational               0.889              2.981             36.062
 Vibrational            206.510             79.607            101.674
 Vibration     1          0.593              1.987              7.641
 Vibration     2          0.593              1.986              6.674
 Vibration     3          0.593              1.984              5.965
 Vibration     4          0.594              1.982              5.459
 Vibration     5          0.594              1.981              5.197
 Vibration     6          0.595              1.978              4.829
 Vibration     7          0.595              1.977              4.783
 Vibration     8          0.596              1.974              4.493
 Vibration     9          0.597              1.972              4.339
 Vibration    10          0.598              1.969              4.203
 Vibration    11          0.600              1.962              3.858
 Vibration    12          0.603              1.951              3.512
 Vibration    13          0.609              1.932              3.084
 Vibration    14          0.615              1.914              2.818
 Vibration    15          0.621              1.893              2.570
 Vibration    16          0.625              1.879              2.435
 Vibration    17          0.630              1.865              2.315
 Vibration    18          0.634              1.853              2.225
 Vibration    19          0.643              1.824              2.036
 Vibration    20          0.647              1.811              1.960
 Vibration    21          0.657              1.779              1.803
 Vibration    22          0.659              1.774              1.780
 Vibration    23          0.673              1.731              1.607
 Vibration    24          0.692              1.676              1.424
 Vibration    25          0.706              1.635              1.308
 Vibration    26          0.723              1.586              1.191
 Vibration    27          0.755              1.499              1.014
 Vibration    28          0.782              1.429              0.895
 Vibration    29          0.786              1.419              0.879
 Vibration    30          0.816              1.343              0.772
 Vibration    31          0.825              1.322              0.744
 Vibration    32          0.869              1.218              0.623
 Vibration    33          0.879              1.197              0.600
 Vibration    34          0.921              1.107              0.514
 Vibration    35          0.939              1.070              0.481
 Vibration    36          0.951              1.046              0.462

 Normal termination of Gaussian 09 at Tue Feb 19 19:26:59 2019.
