 Gaussian 09, Revision E.01,

 ----------------------------------------------------------------------
 # M062X/Gen 6D SCF=Tight INT(grid=ultrafine) OPT IOP(2/17=4) SCRF=(SMD
 ,Solvent=h2o) maxdisk=2147483648
 ----------------------------------------------------------------------

 -------------------------------
 4SF5_a1.M062X_6-31pGd_opt_water
 -------------------------------
 Symbolic Z-matrix:
 Charge = -1 Multiplicity = 1

 SCF Done:  E(RM062X) =  -1470.02324582     A.U. after   18 cycles
 SCF Done:  E(RM062X) =  -1470.05872634     A.U. after   13 cycles
 SCF Done:  E(RM062X) =  -1470.06935020     A.U. after   13 cycles
 SCF Done:  E(RM062X) =  -1470.06987690     A.U. after   13 cycles
 SCF Done:  E(RM062X) =  -1470.07033676     A.U. after   13 cycles
 SCF Done:  E(RM062X) =  -1470.07046976     A.U. after   12 cycles
 SCF Done:  E(RM062X) =  -1470.07057733     A.U. after   13 cycles
 SCF Done:  E(RM062X) =  -1470.07048337     A.U. after   14 cycles
 SCF Done:  E(RM062X) =  -1470.07060783     A.U. after   12 cycles
 SCF Done:  E(RM062X) =  -1470.07068147     A.U. after   13 cycles
 SCF Done:  E(RM062X) =  -1470.07167256     A.U. after   12 cycles
 SCF Done:  E(RM062X) =  -1470.07170988     A.U. after   13 cycles
 SCF Done:  E(RM062X) =  -1470.07172161     A.U. after   12 cycles
 SCF Done:  E(RM062X) =  -1470.07172521     A.U. after   10 cycles
 SCF Done:  E(RM062X) =  -1470.07172735     A.U. after   11 cycles
 SCF Done:  E(RM062X) =  -1470.07172811     A.U. after   11 cycles
 SCF Done:  E(RM062X) =  -1470.07172828     A.U. after   10 cycles
 SCF Done:  E(RM062X) =  -1470.07172830     A.U. after   10 cycles
 Optimization completed.
    -- Stationary point found.

 1\1\GINC-R3718\FOpt\RM062X\Gen\C10H12F5N2O1S1(1-)\ROOT\30-Oct-2018\0\\
 # M062X/Gen 6D SCF=Tight INT(grid=ultrafine) OPT IOP(2/17=4) SCRF=(SMD
 ,Solvent=h2o) maxdisk=2147483648\\4SF5_a1.M062X_6-31pGd_opt_water\\-1,
 1\C,-2.0268012249,1.8787540089,-0.2185201531\C,-0.7159415916,1.4088752
 293,0.4046916782\C,0.4774806024,2.1485622719,-0.1825040083\N,1.7200155
 253,1.6713418954,0.4112879082\C,2.935743179,2.1482203429,-0.0509026733
 \O,2.9450835986,3.2509480119,-0.6704264789\N,3.9775574955,1.3356565015
 ,0.2034071003\C,5.261617383,1.7960884323,0.0778675564\C,5.6810871952,3

 Normal termination of Gaussian 09 at Tue Oct 30 14:31:39 2018.
 Gaussian 09:  ES64L-G09RevE.01 30-Nov-2015

 ----------------------------------------------------------------------
 # M062X/Gen 6D SCF=Tight INT(grid=ultrafine) OPT IOP(2/17=4) SCRF=(SMD
 ,Solvent=h2o) Freq=Noraman maxdisk=2147483648 geom=check guess=read IO
 P(2/17=4)
 ----------------------------------------------------------------------

 -------------------------------
 4SF5_a1.M062X_6-31pGd_opt_water
 -------------------------------
 Structure from the checkpoint file:  "4SF5_a1.M062X_6-31pGd_opt_water.chk"
 Charge = -1 Multiplicity = 1

 SCF Done:  E(RM062X) =  -1470.07172830     A.U. after    1 cycles
 Optimization completed.
    -- Stationary point found.

 1\1\GINC-R3718\FOpt\RM062X\Gen\C10H12F5N2O1S1(1-)\ROOT\30-Oct-2018\0\\
 # M062X/Gen 6D SCF=Tight INT(grid=ultrafine) OPT IOP(2/17=4) SCRF=(SMD
 ,Solvent=h2o) Freq=Noraman maxdisk=2147483648 geom=check guess=read IO
 P(2/17=4)\\4SF5_a1.M062X_6-31pGd_opt_water\\-1,1\C,-2.0268012249,1.878
 7540089,-0.2185201531\C,-0.7159415916,1.4088752293,0.4046916782\C,0.47
 74806024,2.1485622719,-0.1825040083\N,1.7200155253,1.6713418954,0.4112
 879082\C,2.935743179,2.1482203429,-0.0509026733\O,2.9450835986,3.25094
 80119,-0.6704264789\N,3.9775574955,1.3356565015,0.2034071003\C,5.26161

 Normal termination of Gaussian 09 at Tue Oct 30 14:32:50 2018.

 ----------------------------------------------------------------------
 #N Geom=AllCheck Guess=TCheck SCRF=Check Test GenChk RM062X/ChkBas Fre
 q
 ----------------------------------------------------------------------

 Structure from the checkpoint file:  "4SF5_a1.M062X_6-31pGd_opt_water.chk"
 -------------------------------
 4SF5_a1.M062X_6-31pGd_opt_water
 -------------------------------
 Charge = -1 Multiplicity = 1

                         Standard orientation:
 ---------------------------------------------------------------------
 Center     Atomic      Atomic             Coordinates (Angstroms)
 Number     Number       Type             X           Y           Z
 ---------------------------------------------------------------------
      1          6           0       -8.080406   -0.360556    0.263618
      2          6           0       -6.843529    0.295113   -0.342819
      3          6           0       -5.562829   -0.338750    0.180837
      4          7           0       -4.394096    0.314497   -0.394968
      5          6           0       -3.123478   -0.048323    0.020867
      6          8           0       -2.977116   -1.179850    0.566880
      7          7           0       -2.185758    0.892793   -0.191956
      8          6           0       -0.855546    0.575509   -0.111753
      9          6           0       -0.289412   -0.699006   -0.383272
     10          6           0        0.054926    1.623914    0.180526
     11          6           0        1.424380    1.426313    0.224618
     12          6           0        1.929504    0.152248   -0.037777
     13          6           0        1.080803   -0.909016   -0.348932
     14          1           0       -8.997983    0.094917   -0.121127
     15          1           0       -8.084547   -0.256143    1.354382
     16          1           0       -8.111380   -1.430378    0.028307
     17          1           0       -6.838383    1.367554   -0.107970
     18          1           0       -6.869258    0.206497   -1.435820
     19          1           0       -5.543770   -1.400971   -0.082902
     20          1           0       -5.543698   -0.278872    1.279749
     21          1           0       -4.499308    1.308859   -0.566312
     22          1           0       -0.935983   -1.528137   -0.642970
     23          1           0       -0.345056    2.614285    0.378491
     24          1           0        2.082734    2.256130    0.461438
     25         16           0        3.697213   -0.123678    0.018786
     26          1           0        1.476447   -1.895331   -0.570925
     27          9           0        3.884656    0.688294    1.410296
     28          9           0        5.302822   -0.374260    0.070381
     29          9           0        3.559623   -1.510684    0.847590
     30          9           0        3.715467   -0.967529   -1.366367
     31          9           0        4.040121    1.231239   -0.803786
 ---------------------------------------------------------------------

 SCF Done:  E(RM062X) =  -1470.07172830     A.U. after    1 cycles

 The electronic state is 1-A.
 Alpha  occ. eigenvalues --  -90.32254 -25.30413 -25.30408 -25.30401 -25.30397
 Alpha  occ. eigenvalues --  -25.30253 -19.59609 -14.75744 -14.71346 -10.65026
 Alpha  occ. eigenvalues --  -10.58980 -10.58935 -10.56928 -10.56925 -10.56410
 Alpha  occ. eigenvalues --  -10.54680 -10.54657 -10.53622 -10.52704  -8.60954
 Alpha  occ. eigenvalues --   -6.53379  -6.53360  -6.52896  -1.48856  -1.39264
 Alpha  occ. eigenvalues --   -1.39152  -1.36097  -1.34904  -1.13988  -1.01051
 Alpha  occ. eigenvalues --   -0.99684  -0.96731  -0.91787  -0.87026  -0.85181
 Alpha  occ. eigenvalues --   -0.82760  -0.76517  -0.73224  -0.72831  -0.72756
 Alpha  occ. eigenvalues --   -0.69862  -0.67284  -0.66321  -0.63792  -0.62870
 Alpha  occ. eigenvalues --   -0.61532  -0.61172  -0.58927  -0.57695  -0.55448
 Alpha  occ. eigenvalues --   -0.54756  -0.54743  -0.54442  -0.54387  -0.53715
 Alpha  occ. eigenvalues --   -0.53050  -0.52379  -0.51705  -0.51193  -0.50849
 Alpha  occ. eigenvalues --   -0.50694  -0.49582  -0.48977  -0.47718  -0.45765
 Alpha  occ. eigenvalues --   -0.45263  -0.43723  -0.43300  -0.41530  -0.40909
 Alpha  occ. eigenvalues --   -0.39086  -0.38689  -0.36995  -0.34323  -0.31698
 Alpha  occ. eigenvalues --   -0.30693  -0.29924  -0.24244
 Alpha virt. eigenvalues --   -0.01358   0.00605   0.01955   0.02584   0.03648
 Alpha virt. eigenvalues --    0.03834   0.04121   0.04239   0.04543   0.04827
 Alpha virt. eigenvalues --    0.05116   0.05961   0.06289   0.06995   0.07600

 Mulliken charges:
               1
     1  C   -0.746397
     2  C   -0.360884
     3  C   -0.376781
     4  N   -0.606462
     5  C    0.786193
     6  O   -0.839362
     7  N   -0.632704
     8  C    0.239987
     9  C    0.822521
    10  C   -0.328797
    11  C   -0.037206
    12  C   -0.666440
    13  C   -1.015001
    14  H    0.220314
    15  H    0.220033
    16  H    0.219443
    17  H    0.223194
    18  H    0.228226
    19  H    0.223838
    20  H    0.209768
    21  H    0.434619
    22  H    0.246457
    23  H    0.242886
    24  H    0.271728
    25  S    2.265682
    26  H    0.270258
    27  F   -0.498186
    28  F   -0.517672
    29  F   -0.498108
    30  F   -0.500800
    31  F   -0.500347
 Sum of Mulliken charges =  -1.00000

 Dipole moment (field-independent basis, Debye):
    X=              0.7188    Y=              2.4658    Z=             -1.0219  Tot=              2.7642
 Quadrupole moment (field-independent basis, Debye-Ang):
   XX=           -155.6531   YY=           -122.2784   ZZ=           -127.1377
   XY=             -7.0825   XZ=              2.6530   YZ=              5.6263

  Exact polarizability: 341.349   2.959 231.722   5.405   3.677 169.515
 Approx polarizability: 255.797   0.142 202.948   5.503   3.735 150.106

                      1                      2                      3
                      A                      A                      A
 Frequencies --     22.9636                27.4928                44.6651
 Red. masses --      4.3369                 4.1947                 3.2371
 Frc consts  --      0.0013                 0.0019                 0.0038
 IR Inten    --      6.2794                 1.0871                 2.3786

                      4                      5                      6
                      A                      A                      A
 Frequencies --     59.1262                74.2767                81.7255
 Red. masses --      3.3906                 3.8985                 5.9357
 Frc consts  --      0.0070                 0.0127                 0.0234
 IR Inten    --      4.8075                13.1221                 4.2804

                      7                      8                      9
                      A                      A                      A
 Frequencies --    102.5312               138.6888               161.0097
 Red. masses --      5.1763                 6.1743                 5.1526
 Frc consts  --      0.0321                 0.0700                 0.0787
 IR Inten    --      3.7272                 5.5905                16.3618

                     10                     11                     12
                      A                      A                      A
 Frequencies --    170.9023               215.9207               229.9021
 Red. masses --      4.5636                 4.3706                 6.2441
 Frc consts  --      0.0785                 0.1201                 0.1944
 IR Inten    --      2.5429                 0.6359                 7.8059

                     13                     14                     15
                      A                      A                      A
 Frequencies --    240.1283               303.3816               322.6035
 Red. masses --      1.2090                 7.8470                 8.7370
 Frc consts  --      0.0411                 0.4255                 0.5357
 IR Inten    --      0.1049                11.0057                 6.0429

                     16                     17                     18
                      A                      A                      A
 Frequencies --    337.7878               337.8606               352.7239
 Red. masses --     17.9138                 5.5971                 4.7427
 Frc consts  --      1.2043                 0.3764                 0.3477
 IR Inten    --      0.0104                 1.0660                30.8257

                     19                     20                     21
                      A                      A                      A
 Frequencies --    400.9271               421.2087               438.3619
 Red. masses --      9.4376                 3.1500                 7.8336
 Frc consts  --      0.8938                 0.3293                 0.8869
 IR Inten    --     29.6316                 2.6220                 1.2706

                     22                     23                     24
                      A                      A                      A
 Frequencies --    447.8721               449.7409               473.1118
 Red. masses --     14.5866                 7.3117                 2.7072
 Frc consts  --      1.7239                 0.8714                 0.3570
 IR Inten    --      8.4281                 6.6449                37.2036

                     25                     26                     27
                      A                      A                      A
 Frequencies --    532.1872               545.8137               552.7732
 Red. masses --      4.0017                 2.0442                17.4821
 Frc consts  --      0.6678                 0.3588                 3.1473
 IR Inten    --     42.7928               335.3160                23.4651

                     28                     29                     30
                      A                      A                      A
 Frequencies --    558.9561               581.3791               597.2375
 Red. masses --      4.4488                 8.7382                18.7306
 Frc consts  --      0.8189                 1.7402                 3.9364
 IR Inten    --    142.6022               139.3056                 0.0190

                     31                     32                     33
                      A                      A                      A
 Frequencies --    632.4029               637.0068               679.9343
 Red. masses --      7.0106                 9.9245                 8.6182
 Frc consts  --      1.6519                 2.3727                 2.3475
 IR Inten    --      7.8633                55.9634                 7.5180

                     34                     35                     36
                      A                      A                      A
 Frequencies --    720.7161               755.7462               765.8177
 Red. masses --      3.7761                 1.3241                 3.0136
 Frc consts  --      1.1556                 0.4456                 1.0413
 IR Inten    --     10.3927                85.5892               269.4347

                     37                     38                     39
                      A                      A                      A
 Frequencies --    798.8064               810.1974               831.8202
 Red. masses --      6.5959                 8.6415                 1.2742
 Frc consts  --      2.4798                 3.3421                 0.5194
 IR Inten    --     21.3409               789.0838                 8.8506

                     40                     41                     42
                      A                      A                      A
 Frequencies --    833.3061               846.0537               854.3568
 Red. masses --     17.2305                24.1898                 2.5906
 Frc consts  --      7.0495                10.2018                 1.1141
 IR Inten    --    725.8009               642.5312                83.8072

                     43                     44                     45
                      A                      A                      A
 Frequencies --    877.0702               904.3724               933.5969
 Red. masses --      3.9835                 1.1634                 1.6453
 Frc consts  --      1.8054                 0.5606                 0.8449
 IR Inten    --     74.7064                16.4510                 1.5951

                     46                     47                     48
                      A                      A                      A
 Frequencies --    981.9040               996.1720              1008.2520
 Red. masses --      1.2931                 1.3319                 3.5662
 Frc consts  --      0.7345                 0.7788                 2.1360
 IR Inten    --      0.3578                 0.4103               147.3946

                     49                     50                     51
                      A                      A                      A
 Frequencies --   1031.7757              1080.5981              1118.7281
 Red. masses --      5.0637                 2.5549                 2.7694
 Frc consts  --      3.1761                 1.7578                 2.0422
 IR Inten    --     53.1836                35.4402               352.2469

                     52                     53                     54
                      A                      A                      A
 Frequencies --   1139.1240              1149.6665              1166.8964
 Red. masses --      2.1082                 1.2659                 1.8363
 Frc consts  --      1.6118                 0.9858                 1.4732
 IR Inten    --     27.1650                12.0084                 5.9116

                     55                     56                     57
                      A                      A                      A
 Frequencies --   1183.4441              1204.6661              1263.2634
 Red. masses --      2.5754                 1.2168                 1.5093
 Frc consts  --      2.1251                 1.0404                 1.4191
 IR Inten    --     90.4473                 8.6437                97.3051

                     58                     59                     60
                      A                      A                      A
 Frequencies --   1283.5076              1321.6983              1323.9347
 Red. masses --      1.5515                 1.5082                 1.1463
 Frc consts  --      1.5059                 1.5523                 1.1838
 IR Inten    --    412.4547                 4.1882                18.3912

                     61                     62                     63
                      A                      A                      A
 Frequencies --   1339.3692              1347.8192              1391.5763
 Red. masses --      1.5945                 3.3404                 2.7697
 Frc consts  --      1.6853                 3.5752                 3.1601
 IR Inten    --     35.2152                48.1501              1202.7658

                     64                     65                     66
                      A                      A                      A
 Frequencies --   1421.0787              1437.0809              1466.5488
 Red. masses --      1.3203                 2.0705                 3.7306
 Frc consts  --      1.5710                 2.5194                 4.7274
 IR Inten    --    106.9827               641.3356               169.9545

                     67                     68                     69
                      A                      A                      A
 Frequencies --   1486.5660              1492.2974              1503.2964
 Red. masses --      1.5425                 1.3179                 1.0401
 Frc consts  --      2.0084                 1.7292                 1.3849
 IR Inten    --    510.2458               317.7893                11.6534

                     70                     71                     72
                      A                      A                      A
 Frequencies --   1513.1558              1528.6119              1531.6058
 Red. masses --      1.1352                 2.2437                 1.2845
 Frc consts  --      1.5314                 3.0890                 1.7753
 IR Inten    --    134.9454               982.3650                59.4025

                     73                     74                     75
                      A                      A                      A
 Frequencies --   1561.9780              1626.2980              1662.2305
 Red. masses --      3.7181                 7.2432                 6.2878
 Frc consts  --      5.3447                11.2871                10.2361
 IR Inten    --    692.9170                62.8166               174.5675

                     76                     77                     78
                      A                      A                      A
 Frequencies --   3038.1659              3067.2709              3075.1419
 Red. masses --      1.0705                 1.0613                 1.0364
 Frc consts  --      5.8218                 5.8832                 5.7742
 IR Inten    --     97.0757                54.2813                43.4927

                     79                     80                     81
                      A                      A                      A
 Frequencies --   3103.4892              3123.9794              3143.9441
 Red. masses --      1.0979                 1.0969                 1.1036
 Frc consts  --      6.2306                 6.3074                 6.4268
 IR Inten    --     18.4399                64.3747                99.1657

                     82                     83                     84
                      A                      A                      A
 Frequencies --   3152.8905              3228.8826              3243.8108
 Red. masses --      1.1022                 1.0898                 1.0912
 Frc consts  --      6.4552                 6.6944                 6.7649
 IR Inten    --     53.0503                 9.6455                 0.2419

                     85                     86                     87
                      A                      A                      A
 Frequencies --   3249.9766              3269.2890              3605.8901
 Red. masses --      1.0948                 1.0928                 1.0771
 Frc consts  --      6.8132                 6.8820                 8.2511
 IR Inten    --      1.3263                 1.6114                63.4710

 - Thermochemistry -
 -------------------
 Temperature   298.150 Kelvin.  Pressure   1.00000 Atm.
 Atom     1 has atomic number  6 and mass  12.00000

 Molecular mass:   303.05905 amu.
 Principal axes and moments of inertia in atomic units:
                           1         2         3
     Eigenvalues --  1299.85726********************
           X            1.00000   0.00233  -0.00069
           Y           -0.00232   0.99983   0.01845
           Z            0.00074  -0.01844   0.99983
 This molecule is an asymmetric top.
 Rotational symmetry number  1.
 Warning -- assumption of classical behavior for rotation
           may cause significant error
 Rotational temperatures (Kelvin)      0.06663     0.00487     0.00475
 Rotational constants (GHZ):           1.38841     0.10150     0.09907
 Zero-point vibrational energy     591974.1 (Joules/Mol)
                                  141.48520 (Kcal/Mol)
 Warning -- explicit consideration of  30 degrees of freedom as
           vibrations may cause significant error
 Vibrational temperatures:     33.04    39.56    64.26    85.07   106.87
          (Kelvin)            117.58   147.52   199.54   231.66   245.89
                              310.66   330.78   345.49   436.50   464.15
                              486.00   486.11   507.49   576.84   606.02
                              630.70   644.39   647.08   680.70   765.70
                              785.30   795.32   804.21   836.47   859.29
                              909.89   916.51   978.27  1036.95  1087.35
                             1101.84  1149.30  1165.69  1196.80  1198.94
                             1217.28  1229.23  1261.91  1301.19  1343.24
                             1412.74  1433.27  1450.65  1484.49  1554.74
                             1609.60  1638.94  1654.11  1678.90  1702.71
                             1733.24  1817.55  1846.68  1901.63  1904.84
                             1927.05  1939.21  2002.17  2044.61  2067.64
                             2110.03  2138.83  2147.08  2162.91  2177.09
                             2199.33  2203.64  2247.34  2339.88  2391.58
                             4371.24  4413.11  4424.44  4465.22  4494.70
                             4523.43  4536.30  4645.64  4667.11  4675.99
                             4703.77  5188.07

 Zero-point correction=                           0.225471 (Hartree/Particle)
 Thermal correction to Energy=                    0.243826
 Thermal correction to Enthalpy=                  0.244771
 Thermal correction to Gibbs Free Energy=         0.176852
 Sum of electronic and zero-point Energies=          -1469.846257
 Sum of electronic and thermal Energies=             -1469.827902
 Sum of electronic and thermal Enthalpies=           -1469.826958
 Sum of electronic and thermal Free Energies=        -1469.894877

                     E (Thermal)             CV                S
                      KCal/Mol        Cal/Mol-Kelvin    Cal/Mol-Kelvin
 Total                  153.003             69.039            142.948
 Electronic               0.000              0.000              0.000
 Translational            0.889              2.981             43.023
 Rotational               0.889              2.981             34.398
 Vibrational            151.226             63.078             65.527
 Vibration     1          0.593              1.985              6.360
 Vibration     2          0.593              1.984              6.003
 Vibration     3          0.595              1.980              5.041
 Vibration     4          0.596              1.974              4.486
 Vibration     5          0.599              1.966              4.037
 Vibration     6          0.600              1.962              3.849
 Vibration     7          0.605              1.947              3.406
 Vibration     8          0.614              1.915              2.822
 Vibration     9          0.622              1.890              2.538
 Vibration    10          0.626              1.878              2.426
 Vibration    11          0.645              1.817              1.993
 Vibration    12          0.652              1.795              1.880
 Vibration    13          0.657              1.779              1.802
 Vibration    14          0.695              1.667              1.398
 Vibration    15          0.708              1.630              1.297
 Vibration    16          0.718              1.600              1.223
 Vibration    17          0.718              1.600              1.222
 Vibration    18          0.729              1.570              1.154
 Vibration    19          0.767              1.468              0.959
 Vibration    20          0.784              1.424              0.888
 Vibration    21          0.799              1.387              0.832
 Vibration    22          0.807              1.366              0.802
 Vibration    23          0.809              1.361              0.797
 Vibration    24          0.830              1.310              0.729
 Vibration    25          0.887              1.179              0.582
 Vibration    26          0.901              1.149              0.553
 Vibration    27          0.908              1.134              0.538
 Vibration    28          0.915              1.120              0.526
 Vibration    29          0.938              1.072              0.483
 Vibration    30          0.955              1.038              0.454

 Optimization completed.
    -- Stationary point found.

 1\1\GINC-R3718\Freq\RM062X\Gen\C10H12F5N2O1S1(1-)\ROOT\30-Oct-2018\0\\
 #N Geom=AllCheck Guess=TCheck SCRF=Check Test GenChk RM062X/ChkBas Fre
 q\\4SF5_a1.M062X_6-31pGd_opt_water\\-1,1\C,-2.0268012249,1.8787540089,
 -0.2185201531\C,-0.7159415916,1.4088752293,0.4046916782\C,0.4774806024
 ,2.1485622719,-0.1825040083\N,1.7200155253,1.6713418954,0.4112879082\C
 ,2.935743179,2.1482203429,-0.0509026733\O,2.9450835986,3.2509480119,-0
 .6704264789\N,3.9775574955,1.3356565015,0.2034071003\C,5.261617383,1.7
 960884323,0.0778675564\C,5.6810871952,3.141666335,0.2569863139\C,6.282

 Normal termination of Gaussian 09 at Tue Oct 30 15:23:55 2018.
