 Gaussian 09, Revision E.01,

 ----------------------------------------------------------------------
 # M062X/Gen 6D SCF=Tight INT(grid=ultrafine) OPT IOP(2/17=4) maxdisk=3
 221225472
 ----------------------------------------------------------------------

 -------------------------------
 22Cl_4CF3_EtO.M062X_6-31pGd_opt
 -------------------------------
 Symbolic Z-matrix:
 Charge = -1 Multiplicity = 1

 SCF Done:  E(RM062X) =  -2097.83254695     A.U. after   17 cycles
 SCF Done:  E(RM062X) =  -2097.87095569     A.U. after   14 cycles
 SCF Done:  E(RM062X) =  -2097.86465756     A.U. after   16 cycles
 SCF Done:  E(RM062X) =  -2097.88194953     A.U. after   12 cycles
 SCF Done:  E(RM062X) =  -2097.88873958     A.U. after   14 cycles
 SCF Done:  E(RM062X) =  -2097.89306647     A.U. after   14 cycles
 SCF Done:  E(RM062X) =  -2097.89502974     A.U. after   14 cycles
 SCF Done:  E(RM062X) =  -2097.89552447     A.U. after   14 cycles
 SCF Done:  E(RM062X) =  -2097.89575888     A.U. after   13 cycles
 SCF Done:  E(RM062X) =  -2097.89591912     A.U. after   12 cycles
 SCF Done:  E(RM062X) =  -2097.89629039     A.U. after    9 cycles
 SCF Done:  E(RM062X) =  -2097.89629058     A.U. after   10 cycles
 SCF Done:  E(RM062X) =  -2097.89629075     A.U. after   10 cycles
 SCF Done:  E(RM062X) =  -2097.89629100     A.U. after   11 cycles
 SCF Done:  E(RM062X) =  -2097.89629111     A.U. after   11 cycles
 SCF Done:  E(RM062X) =  -2097.89629123     A.U. after   11 cycles
 SCF Done:  E(RM062X) =  -2097.89629135     A.U. after   11 cycles
 SCF Done:  E(RM062X) =  -2097.89629139     A.U. after   10 cycles
 Optimization completed.
    -- Stationary point found.
 Normal termination of Gaussian 09 at Tue Feb 19 14:17:18 2019.
 Gaussian 09:  ES64L-G09RevE.01 30-Nov-2015

 ----------------------------------------------------------------------
 # M062X/Gen 6D SCF=Tight INT(grid=ultrafine) OPT IOP(2/17=4) Freq=Nora
 man maxdisk=3221225472 geom=check guess=read IOP(2/17=4)
 ----------------------------------------------------------------------

 -------------------------------
 22Cl_4CF3_EtO.M062X_6-31pGd_opt
 -------------------------------
 Structure from the checkpoint file:  "22Cl_4CF3_EtO.M062X_6-31pGd_opt.chk"
 Charge = -1 Multiplicity = 1

 SCF Done:  E(RM062X) =  -2097.89629139     A.U. after    1 cycles
 Optimization completed.
    -- Stationary point found.
 Normal termination of Gaussian 09 at Tue Feb 19 14:18:19 2019.

 ----------------------------------------------------------------------
 #N Geom=AllCheck Guess=TCheck SCRF=Check Test GenChk RM062X/ChkBas Fre
 q
 ----------------------------------------------------------------------

 Structure from the checkpoint file:  "22Cl_4CF3_EtO.M062X_6-31pGd_opt.chk"
 -------------------------------
 22Cl_4CF3_EtO.M062X_6-31pGd_opt
 -------------------------------
 Charge = -1 Multiplicity = 1

                         Standard orientation:
 ---------------------------------------------------------------------
 Center     Atomic      Atomic             Coordinates (Angstroms)
 Number     Number       Type             X           Y           Z
 ---------------------------------------------------------------------
      1          6           0        3.593142    0.009795    0.019331
      2          6           0        2.841274    0.931834    0.739183
      3          6           0        1.456376    0.840011    0.720597
      4          6           0        0.769663   -0.150768   -0.012761
      5          6           0        1.576861   -1.034325   -0.764341
      6          6           0        2.962660   -0.975750   -0.734579
      7          7           0       -0.606451   -0.209592   -0.025217
      8          6           0       -1.283190   -1.386204    0.324351
      9          7           0       -2.620080   -1.291118    0.173075
     10          8           0       -0.698366   -2.381656    0.749242
     11          6           0       -3.478204   -2.391514    0.547523
     12          6           0       -4.919789   -1.910819    0.677800
     13          6           0       -5.866217   -3.058328    1.023063
     14          1           0       -1.161312    0.680535   -0.046969
     15          1           0       -3.052721   -0.449224   -0.253716
     16          1           0       -3.123700   -2.815837    1.495403
     17          1           0       -3.420339   -3.201251   -0.197612
     18          1           0       -5.225649   -1.426715   -0.257002
     19          1           0       -4.964332   -1.132038    1.448529
     20          1           0       -5.849702   -3.829626    0.243758
     21          1           0       -6.898859   -2.708294    1.124622
     22          1           0       -5.579144   -3.536620    1.967363
     23          1           0        3.319285    1.710015    1.323914
     24          1           0        3.539972   -1.675794   -1.329005
     25          6           0        5.086906    0.044528    0.083963
     26          9           0        5.659527   -0.326419   -1.079412
     27          9           0        5.561631    1.269667    0.382259
     28          9           0        5.584700   -0.789940    1.024446
     29         17           0        0.843570   -2.167862   -1.853513
     30         17           0        0.541524    1.978759    1.656557
     31          8           0       -3.965359    0.929247   -0.875048
     32          8           0       -2.140661    2.071109   -0.227099
     33          6           0       -3.316195    1.987466   -0.671657
     34          6           0       -4.045637    3.302468   -0.996856
     35          6           0       -3.216532    4.558226   -0.757287
     36          1           0       -4.964470    3.316179   -0.397108
     37          1           0       -4.373646    3.238207   -2.041788
     38          1           0       -2.897210    4.615371    0.287285
     39          1           0       -3.786009    5.463804   -1.001473
     40          1           0       -2.307406    4.541925   -1.365322
 ---------------------------------------------------------------------

 SCF Done:  E(RM062X) =  -2097.89629139     A.U. after    2 cycles

 The electronic state is 1-A.
 Alpha  occ. eigenvalues -- -102.57898-102.57828 -25.22744 -25.22610 -25.22101
 Alpha  occ. eigenvalues --  -19.48425 -19.46535 -19.46045 -14.66191 -14.64372
 Alpha  occ. eigenvalues --  -10.73555 -10.55494 -10.53412 -10.53361 -10.52734
 Alpha  occ. eigenvalues --  -10.51194 -10.50167 -10.49392 -10.49321 -10.46677
 Alpha  occ. eigenvalues --  -10.45065 -10.44165 -10.42511 -10.42468  -9.72488
 Alpha  occ. eigenvalues --   -9.72427  -7.44906  -7.44846  -7.44229  -7.44199
 Alpha  occ. eigenvalues --   -7.44168  -7.44141  -1.39016  -1.29954  -1.29355
 Alpha  occ. eigenvalues --   -1.04803  -1.02626  -0.95225  -0.92988  -0.91110
 Alpha  occ. eigenvalues --   -0.88928  -0.88449  -0.85102  -0.78557  -0.77424
 Alpha  occ. eigenvalues --   -0.74702  -0.74530  -0.72390  -0.67728  -0.64103
 Alpha  occ. eigenvalues --   -0.62476  -0.61285  -0.60876  -0.59856  -0.58155
 Alpha  occ. eigenvalues --   -0.56355  -0.55232  -0.52001  -0.50691  -0.49655
 Alpha  occ. eigenvalues --   -0.49513  -0.47514  -0.45707  -0.45339  -0.45013
 Alpha  occ. eigenvalues --   -0.44580  -0.44275  -0.43707  -0.43478  -0.41662
 Alpha  occ. eigenvalues --   -0.41478  -0.41044  -0.40152  -0.39941  -0.39530
 Alpha  occ. eigenvalues --   -0.38489  -0.37476  -0.36829  -0.36037  -0.35301
 Alpha  occ. eigenvalues --   -0.34533  -0.33615  -0.33573  -0.33091  -0.32365
 Alpha  occ. eigenvalues --   -0.30623  -0.30210  -0.29938  -0.29329  -0.28653
 Alpha  occ. eigenvalues --   -0.28286  -0.27908  -0.25094  -0.22424  -0.21344
 Alpha  occ. eigenvalues --   -0.19495  -0.19257  -0.18755  -0.18259  -0.17155
 Alpha virt. eigenvalues --    0.08523   0.08963   0.09515   0.10475   0.10885
 Alpha virt. eigenvalues --    0.10995   0.11796   0.12482   0.12607   0.12789
 Alpha virt. eigenvalues --    0.12935   0.13710   0.14121   0.14402   0.14550

 Mulliken charges:
               1
     1  C   -1.453905
     2  C    0.227994
     3  C   -0.105989
     4  C   -0.778174
     5  C    0.059766
     6  C    0.373479
     7  N   -0.592892
     8  C    0.299858
     9  N   -0.681802
    10  O   -0.537829
    11  C   -0.158666
    12  C   -0.300515
    13  C   -0.798224
    14  H    0.534931
    15  H    0.521018
    16  H    0.219866
    17  H    0.197485
    18  H    0.251582
    19  H    0.224762
    20  H    0.199832
    21  H    0.196705
    22  H    0.198472
    23  H    0.240198
    24  H    0.239744
    25  C    1.612534
    26  F   -0.307995
    27  F   -0.320851
    28  F   -0.267937
    29  Cl   0.207238
    30  Cl   0.272467
    31  O   -0.633169
    32  O   -0.617722
    33  C    0.618623
    34  C   -0.434281
    35  C   -0.725419
    36  H    0.207110
    37  H    0.208137
    38  H    0.217008
    39  H    0.169889
    40  H    0.216672
 Sum of Mulliken charges =  -1.00000

 Dipole moment (field-independent basis, Debye):
    X=              4.3659    Y=             -0.2127    Z=              0.4051  Tot=              4.3898
 Quadrupole moment (field-independent basis, Debye-Ang):
   XX=           -212.2745   YY=           -182.5706   ZZ=           -163.7041
   XY=              8.4375   XZ=             -6.5487   YZ=              5.3817

  Exact polarizability: 291.339   7.287 226.379   1.358  22.009 171.787
 Approx polarizability: 302.828   3.435 263.342   5.640  35.467 224.060

                      1                      2                      3
                      A                      A                      A
 Frequencies --     12.0049                13.8624                17.2046
 Red. masses --      2.7745                14.2775                 6.6105
 Frc consts  --      0.0002                 0.0016                 0.0012
 IR Inten    --      0.5844                 0.0201                 0.3796

                      4                      5                      6
                      A                      A                      A
 Frequencies --     23.2716                30.4068                37.7731
 Red. masses --      4.0186                 6.7140                 2.0146
 Frc consts  --      0.0013                 0.0037                 0.0017
 IR Inten    --      0.2193                 0.2412                 0.0593

                      7                      8                      9
                      A                      A                      A
 Frequencies --     45.2879                52.8010                62.5961
 Red. masses --      3.0771                 6.6429                 4.9310
 Frc consts  --      0.0037                 0.0109                 0.0114
 IR Inten    --      0.6069                 1.1855                 5.0205

                     10                     11                     12
                      A                      A                      A
 Frequencies --     70.9082                84.6599                90.2161
 Red. masses --      4.7095                 6.8757                 5.5492
 Frc consts  --      0.0140                 0.0290                 0.0266
 IR Inten    --      0.4692                 6.1283                 7.3998

                     13                     14                     15
                      A                      A                      A
 Frequencies --    102.6542               120.8666               136.4122
 Red. masses --     10.5751                 7.4204                14.6774
 Frc consts  --      0.0657                 0.0639                 0.1609
 IR Inten    --      1.9348                 0.5690                 2.5856

                     16                     17                     18
                      A                      A                      A
 Frequencies --    166.2169               172.7518               187.0485
 Red. masses --      7.1485                 4.3270                 5.6490
 Frc consts  --      0.1164                 0.0761                 0.1164
 IR Inten    --      8.0744                13.5626                14.3266

                     19                     20                     21
                      A                      A                      A
 Frequencies --    199.3469               211.2422               216.8192
 Red. masses --      7.8863                 4.7704                 1.1313
 Frc consts  --      0.1846                 0.1254                 0.0313
 IR Inten    --      2.7695                 0.2037                 0.6139

                     22                     23                     24
                      A                      A                      A
 Frequencies --    230.7485               236.7830               282.5455
 Red. masses --      4.8534                 1.2232                10.7824
 Frc consts  --      0.1523                 0.0404                 0.5072
 IR Inten    --      5.0195                 0.7259                 2.0830

                     25                     26                     27
                      A                      A                      A
 Frequencies --    287.9464               307.7949               329.0472
 Red. masses --      6.8056                 4.8288                 7.2905
 Frc consts  --      0.3325                 0.2695                 0.4651
 IR Inten    --      2.5199                19.7750                 3.4206

                     28                     29                     30
                      A                      A                      A
 Frequencies --    340.8072               343.5637               398.5900
 Red. masses --      7.3305                11.4853                 7.1991
 Frc consts  --      0.5016                 0.7987                 0.6739
 IR Inten    --      4.4707                14.4481                 4.3809

                     31                     32                     33
                      A                      A                      A
 Frequencies --    418.0944               466.6264               518.0830
 Red. masses --      7.5183                 9.4593                 5.7626
 Frc consts  --      0.7743                 1.2135                 0.9113
 IR Inten    --      7.0716                 3.9757                14.3820

                     34                     35                     36
                      A                      A                      A
 Frequencies --    522.3114               524.3805               533.3755
 Red. masses --      5.1323                 8.8491                 4.9966
 Frc consts  --      0.8249                 1.4336                 0.8375
 IR Inten    --     16.6295                 0.2633                 5.7232

                     37                     38                     39
                      A                      A                      A
 Frequencies --    545.9967               582.6995               610.3715
 Red. masses --      8.9384                 1.9733                 8.5628
 Frc consts  --      1.5700                 0.3948                 1.8796
 IR Inten    --      0.3074                 0.2435                 0.0706

                     40                     41                     42
                      A                      A                      A
 Frequencies --    657.7668               663.1828               695.2682
 Red. masses --      4.6108                 6.5292                11.6584
 Frc consts  --      1.1754                 1.6919                 3.3204
 IR Inten    --     45.0071                 5.7410                19.3311

                     43                     44                     45
                      A                      A                      A
 Frequencies --    713.0991               749.6134               761.5101
 Red. masses --      5.1289                 1.1764                 4.3282
 Frc consts  --      1.5366                 0.3895                 1.4788
 IR Inten    --      9.7439                 6.9263                33.4795

                     46                     47                     48
                      A                      A                      A
 Frequencies --    781.5645               813.8369               819.2060
 Red. masses --      6.4006                 4.4991                 1.5390
 Frc consts  --      2.3036                 1.7557                 0.6085
 IR Inten    --      3.7388                25.0811                19.1002

                     49                     50                     51
                      A                      A                      A
 Frequencies --    823.9694               848.9397               885.8910
 Red. masses --      1.4710                 4.8462                 1.2816
 Frc consts  --      0.5884                 2.0578                 0.5926
 IR Inten    --     76.0131                10.2603               149.6566

                     52                     53                     54
                      A                      A                      A
 Frequencies --    893.7128               902.1799               903.2291
 Red. masses --      2.6773                 1.2729                 1.4692
 Frc consts  --      1.2599                 0.6104                 0.7062
 IR Inten    --     52.5948                15.8314                28.5710

                     55                     56                     57
                      A                      A                      A
 Frequencies --    905.3535               915.1300               929.9984
 Red. masses --      1.3701                 2.8877                 2.1262
 Frc consts  --      0.6617                 1.4249                 1.0835
 IR Inten    --      2.7749                53.5351                 8.1970

                     58                     59                     60
                      A                      A                      A
 Frequencies --   1021.6374              1047.4737              1078.7319
 Red. masses --      1.6734                 4.0314                 2.7847
 Frc consts  --      1.0291                 2.6061                 1.9092
 IR Inten    --      1.9040                29.5991                 8.3221

                     61                     62                     63
                      A                      A                      A
 Frequencies --   1106.7523              1112.7551              1118.6560
 Red. masses --      1.7734                 2.3797                 2.1752
 Frc consts  --      1.2798                 1.7361                 1.6038
 IR Inten    --      0.5102                 5.2601                 6.4931

                     64                     65                     66
                      A                      A                      A
 Frequencies --   1150.3780              1153.4700              1182.4139
 Red. masses --      5.7388                 2.4798                 1.7324
 Frc consts  --      4.4746                 1.9439                 1.4270
 IR Inten    --     67.4018                27.4204                16.2512

                     67                     68                     69
                      A                      A                      A
 Frequencies --   1191.1190              1195.7677              1217.6151
 Red. masses --      9.7141                 3.8996                 7.3034
 Frc consts  --      8.1201                 3.2852                 6.3796
 IR Inten    --    236.6966                44.6664               110.9415

                     70                     71                     72
                      A                      A                      A
 Frequencies --   1244.7426              1274.4419              1286.2128
 Red. masses --      1.5605                 1.2015                 1.1882
 Frc consts  --      1.4245                 1.1497                 1.1581
 IR Inten    --     62.8913                17.4988                 0.1526

                     73                     74                     75
                      A                      A                      A
 Frequencies --   1307.9466              1321.9462              1326.3417
 Red. masses --      2.2044                 1.9898                 1.3203
 Frc consts  --      2.2219                 2.0487                 1.3685
 IR Inten    --    154.7628               133.4708               180.1585

                     76                     77                     78
                      A                      A                      A
 Frequencies --   1333.1825              1334.1824              1364.0113
 Red. masses --      2.8890                 1.6405                 1.8783
 Frc consts  --      3.0254                 1.7205                 2.0590
 IR Inten    --    123.9780                35.7541               427.1599

                     79                     80                     81
                      A                      A                      A
 Frequencies --   1392.6233              1422.0065              1422.8327
 Red. masses --      6.6692                 1.3213                 1.3196
 Frc consts  --      7.6207                 1.5742                 1.5740
 IR Inten    --    389.7351                18.6638                 2.9820

                     82                     83                     84
                      A                      A                      A
 Frequencies --   1434.0880              1450.0759              1470.2550
 Red. masses --      1.5942                 3.8239                 4.0668
 Frc consts  --      1.9318                 4.7374                 5.1795
 IR Inten    --      0.1138                84.6387               367.2266

                     85                     86                     87
                      A                      A                      A
 Frequencies --   1490.4672              1510.4802              1511.1700
 Red. masses --      1.1895                 1.0396                 1.0688
 Frc consts  --      1.5569                 1.3974                 1.4381
 IR Inten    --     15.3876                 4.9750                 7.2329

                     88                     89                     90
                      A                      A                      A
 Frequencies --   1522.0621              1523.4841              1527.9418
 Red. masses --      1.0978                 1.0405                 1.0695
 Frc consts  --      1.4985                 1.4229                 1.4712
 IR Inten    --     54.4847                 7.5648                 1.4410

                     91                     92                     93
                      A                      A                      A
 Frequencies --   1541.2006              1547.2163              1604.5019
 Red. masses --      1.0859                 4.8680                 2.5466
 Frc consts  --      1.5197                 6.8659                 3.8626
 IR Inten    --      8.3747                47.4732               190.3985

                     94                     95                     96
                      A                      A                      A
 Frequencies --   1630.2238              1649.7876              1676.6883
 Red. masses --      2.0479                 3.1832                 5.7382
 Frc consts  --      3.2066                 5.1047                 9.5046
 IR Inten    --     39.8891               153.7851               139.1833

                     97                     98                     99
                      A                      A                      A
 Frequencies --   1707.7582              1786.4300              2958.1557
 Red. masses --      4.3202                 5.5016                 1.1012
 Frc consts  --      7.4235                10.3445                 5.6773
 IR Inten    --    893.1215               436.4160              1409.8276

                    100                    101                    102
                      A                      A                      A
 Frequencies --   3019.4223              3062.4007              3064.2133
 Red. masses --      1.0710                 1.0362                 1.0462
 Frc consts  --      5.7527                 5.7258                 5.7877
 IR Inten    --     97.8068                60.3126                70.5654

                    103                    104                    105
                      A                      A                      A
 Frequencies --   3073.5965              3082.9754              3084.9816
 Red. masses --      1.0568                 1.0748                 1.0782
 Frc consts  --      5.8822                 6.0186                 6.0456
 IR Inten    --     34.3609                16.6048                54.5596

                    106                    107                    108
                      A                      A                      A
 Frequencies --   3105.6281              3114.4542              3137.5562
 Red. masses --      1.1014                 1.1017                 1.1023
 Frc consts  --      6.2586                 6.2964                 6.3933
 IR Inten    --     16.6698                 1.5136                44.5139

                    109                    110                    111
                      A                      A                      A
 Frequencies --   3137.7865              3138.2722              3161.2568
 Red. masses --      1.0951                 1.1018                 1.1021
 Frc consts  --      6.3524                 6.3934                 6.4894
 IR Inten    --     45.9380                49.5800                37.5163

                    112                    113                    114
                      A                      A                      A
 Frequencies --   3162.8852              3251.7303              3254.6645
 Red. masses --      1.0926                 1.0921                 1.0922
 Frc consts  --      6.4397                 6.8039                 6.8168
 IR Inten    --   1623.0166                 0.0238                 0.0342

 - Thermochemistry -
 -------------------
 Temperature   298.150 Kelvin.  Pressure   1.00000 Atm.
 Atom     1 has atomic number  6 and mass  12.00000

 Molecular mass:   387.04901 amu.
 Principal axes and moments of inertia in atomic units:
                           1         2         3
     Eigenvalues --  6413.59915********************
           X            0.99998   0.00554  -0.00337
           Y           -0.00565   0.99937  -0.03493
           Z            0.00318   0.03495   0.99938
 This molecule is an asymmetric top.
 Rotational symmetry number  1.
 Warning -- assumption of classical behavior for rotation
           may cause significant error
 Rotational temperatures (Kelvin)      0.01350     0.00488     0.00403
 Rotational constants (GHZ):           0.28139     0.10173     0.08407
 Zero-point vibrational energy     778760.7 (Joules/Mol)
                                  186.12827 (Kcal/Mol)
 Warning -- explicit consideration of  39 degrees of freedom as
           vibrations may cause significant error
 Vibrational temperatures:     17.27    19.94    24.75    33.48    43.75
          (Kelvin)             54.35    65.16    75.97    90.06   102.02
                              121.81   129.80   147.70   173.90   196.27
                              239.15   248.55   269.12   286.82   303.93
                              311.95   332.00   340.68   406.52   414.29
                              442.85   473.42   490.34   494.31   573.48
                              601.54   671.37   745.41   751.49   754.47
                              767.41   785.57   838.37   878.19   946.38
                              954.17  1000.33  1025.99  1078.53  1095.64
                             1124.50  1170.93  1178.65  1185.51  1221.43
                             1274.60  1285.85  1298.03  1299.54  1302.60
                             1316.67  1338.06  1469.91  1507.08  1552.05
                             1592.37  1601.00  1609.49  1655.14  1659.58
                             1701.23  1713.75  1720.44  1751.87  1790.90
                             1833.64  1850.57  1881.84  1901.98  1908.31
                             1918.15  1919.59  1962.51  2003.67  2045.95
                             2047.14  2063.33  2086.33  2115.37  2144.45
                             2173.24  2174.23  2189.91  2191.95  2198.36
                             2217.44  2226.10  2308.52  2345.53  2373.67
                             2412.38  2457.08  2570.27  4256.12  4344.27
                             4406.11  4408.71  4422.21  4435.71  4438.59
                             4468.30  4481.00  4514.24  4514.57  4515.27
                             4548.34  4550.68  4678.51  4682.73

 Zero-point correction=                           0.296614 (Hartree/Particle)
 Thermal correction to Energy=                    0.322631
 Thermal correction to Enthalpy=                  0.323575
 Thermal correction to Gibbs Free Energy=         0.232947
 Sum of electronic and zero-point Energies=          -2097.599677
 Sum of electronic and thermal Energies=             -2097.573660
 Sum of electronic and thermal Enthalpies=           -2097.572716
 Sum of electronic and thermal Free Energies=        -2097.663345

                     E (Thermal)             CV                S
                      KCal/Mol        Cal/Mol-Kelvin    Cal/Mol-Kelvin
 Total                  202.454             89.496            190.743
 Electronic               0.000              0.000              0.000
 Translational            0.889              2.981             43.752
 Rotational               0.889              2.981             36.144
 Vibrational            200.677             83.534            110.847
 Vibration     1          0.593              1.987              7.648
 Vibration     2          0.593              1.986              7.362
 Vibration     3          0.593              1.986              6.933
 Vibration     4          0.593              1.985              6.333
 Vibration     5          0.594              1.984              5.803
 Vibration     6          0.594              1.982              5.373
 Vibration     7          0.595              1.979              5.013
 Vibration     8          0.596              1.976              4.710
 Vibration     9          0.597              1.972              4.374
 Vibration    10          0.598              1.968              4.128
 Vibration    11          0.601              1.960              3.780
 Vibration    12          0.602              1.956              3.655
 Vibration    13          0.605              1.947              3.403
 Vibration    14          0.609              1.932              3.086
 Vibration    15          0.614              1.917              2.854
 Vibration    16          0.624              1.884              2.478
 Vibration    17          0.626              1.876              2.405
 Vibration    18          0.632              1.858              2.257
 Vibration    19          0.637              1.841              2.139
 Vibration    20          0.643              1.824              2.033
 Vibration    21          0.646              1.815              1.986
 Vibration    22          0.652              1.794              1.873
 Vibration    23          0.656              1.784              1.827
 Vibration    24          0.682              1.706              1.518
 Vibration    25          0.685              1.696              1.486
 Vibration    26          0.698              1.659              1.374
 Vibration    27          0.712              1.617              1.265
 Vibration    28          0.720              1.594              1.208
 Vibration    29          0.722              1.588              1.196
 Vibration    30          0.765              1.473              0.968
 Vibration    31          0.781              1.431              0.898
 Vibration    32          0.824              1.324              0.747
 Vibration    33          0.873              1.210              0.614
 Vibration    34          0.877              1.201              0.605
 Vibration    35          0.879              1.196              0.600
 Vibration    36          0.888              1.176              0.580
 Vibration    37          0.901              1.148              0.553
 Vibration    38          0.940              1.069              0.480
 Vibration    39          0.969              1.010              0.432

 Normal termination of Gaussian 09 at Tue Feb 19 15:16:09 2019.
