 Gaussian 09, Revision E.01,

 ----------------------------------------------------------------------
 # M062X/Gen 6D SCF=Tight INT(grid=ultrafine) OPT IOP(2/17=4) SCRF=(SMD
 ,Solvent=h2o) maxdisk=3221225472
 ----------------------------------------------------------------------

 -------------------------------------
 22Cl_4CF3_EtO.M062X_6-31pGd_opt_water
 -------------------------------------
 Symbolic Z-matrix:
 Charge = -1 Multiplicity = 1

 SCF Done:  E(RM062X) =  -2097.92156059     A.U. after   15 cycles
 SCF Done:  E(RM062X) =  -2097.95830244     A.U. after   14 cycles
 SCF Done:  E(RM062X) =  -2097.95191693     A.U. after   15 cycles
 SCF Done:  E(RM062X) =  -2097.96775580     A.U. after   12 cycles
 SCF Done:  E(RM062X) =  -2097.97131191     A.U. after   16 cycles
 SCF Done:  E(RM062X) =  -2097.97331153     A.U. after   14 cycles
 SCF Done:  E(RM062X) =  -2097.97446300     A.U. after   13 cycles
 SCF Done:  E(RM062X) =  -2097.97475497     A.U. after   14 cycles
 SCF Done:  E(RM062X) =  -2097.97547764     A.U. after   13 cycles
 SCF Done:  E(RM062X) =  -2097.97560286     A.U. after   12 cycles
 SCF Done:  E(RM062X) =  -2097.97629001     A.U. after   11 cycles
 SCF Done:  E(RM062X) =  -2097.97629021     A.U. after   11 cycles
 SCF Done:  E(RM062X) =  -2097.97629143     A.U. after   10 cycles
 SCF Done:  E(RM062X) =  -2097.97629222     A.U. after   11 cycles
 SCF Done:  E(RM062X) =  -2097.97629310     A.U. after    9 cycles
 SCF Done:  E(RM062X) =  -2097.97629419     A.U. after   11 cycles
 SCF Done:  E(RM062X) =  -2097.97629436     A.U. after   10 cycles
 SCF Done:  E(RM062X) =  -2097.97629451     A.U. after   10 cycles
 Optimization completed.
    -- Stationary point found.
 Normal termination of Gaussian 09 at Tue Feb 19 12:57:55 2019.
 Gaussian 09:  ES64L-G09RevE.01 30-Nov-2015

 ----------------------------------------------------------------------
 # M062X/Gen 6D SCF=Tight INT(grid=ultrafine) OPT IOP(2/17=4) SCRF=(SMD
 ,Solvent=h2o) Freq=Noraman maxdisk=3221225472 geom=check guess=read IO
 P(2/17=4)
 ----------------------------------------------------------------------

 -------------------------------------
 22Cl_4CF3_EtO.M062X_6-31pGd_opt_water
 -------------------------------------
 Structure from the checkpoint file:  "22Cl_4CF3_EtO.M062X_6-31pGd_opt_water.chk"
 Charge = -1 Multiplicity = 1

 SCF Done:  E(RM062X) =  -2097.97629451     A.U. after    2 cycles
 Optimization completed.
    -- Stationary point found.
 Normal termination of Gaussian 09 at Tue Feb 19 12:59:30 2019.

 ----------------------------------------------------------------------
 #N Geom=AllCheck Guess=TCheck SCRF=Check Test GenChk RM062X/ChkBas Fre
 q
 ----------------------------------------------------------------------

 Structure from the checkpoint file:  "22Cl_4CF3_EtO.M062X_6-31pGd_opt_water.chk"
 -------------------------------------
 22Cl_4CF3_EtO.M062X_6-31pGd_opt_water
 -------------------------------------
 Charge = -1 Multiplicity = 1

                         Standard orientation:
 ---------------------------------------------------------------------
 Center     Atomic      Atomic             Coordinates (Angstroms)
 Number     Number       Type             X           Y           Z
 ---------------------------------------------------------------------
      1          6           0        3.612687   -0.010697   -0.001401
      2          6           0        2.880297    0.852412    0.808905
      3          6           0        1.496460    0.767839    0.791618
      4          6           0        0.809985   -0.143838   -0.028444
      5          6           0        1.593423   -0.974183   -0.845189
      6          6           0        2.982410   -0.928455   -0.831634
      7          7           0       -0.585126   -0.202429   -0.052684
      8          6           0       -1.248974   -1.333113    0.401534
      9          7           0       -2.584255   -1.284133    0.271896
     10          8           0       -0.642966   -2.301851    0.894427
     11          6           0       -3.429190   -2.371311    0.744783
     12          6           0       -4.895039   -2.037621    0.507825
     13          6           0       -5.802897   -3.160781    0.998365
     14          1           0       -1.123579    0.680910   -0.070204
     15          1           0       -3.016277   -0.495031   -0.227435
     16          1           0       -3.249570   -2.536981    1.814049
     17          1           0       -3.168133   -3.300557    0.222730
     18          1           0       -5.057211   -1.864275   -0.563362
     19          1           0       -5.140609   -1.101690    1.024907
     20          1           0       -5.582267   -4.098685    0.476594
     21          1           0       -6.855981   -2.919408    0.825813
     22          1           0       -5.667708   -3.332836    2.071992
     23          1           0        3.377429    1.568320    1.456790
     24          1           0        3.553318   -1.589433   -1.474282
     25          6           0        5.110153    0.087822    0.030040
     26          9           0        5.706610   -0.850683   -0.720127
     27          9           0        5.545152    1.283111   -0.419264
     28          9           0        5.595561   -0.039851    1.280762
     29         17           0        0.818676   -2.066604   -1.953276
     30         17           0        0.583431    1.811799    1.840128
     31          8           0       -3.833936    0.896089   -1.147707
     32          8           0       -2.244692    2.119113   -0.159659
     33          6           0       -3.350373    2.003152   -0.761306
     34          6           0       -4.178138    3.252054   -1.050285
     35          6           0       -3.556203    4.564812   -0.596341
     36          1           0       -5.155286    3.101174   -0.575526
     37          1           0       -4.368362    3.265093   -2.130180
     38          1           0       -3.391476    4.572249    0.485586
     39          1           0       -4.213622    5.404288   -0.843776
     40          1           0       -2.591566    4.735923   -1.084302
 ---------------------------------------------------------------------

 SCF Done:  E(RM062X) =  -2097.97629451     A.U. after    1 cycles

 The electronic state is 1-A.
 Alpha  occ. eigenvalues -- -102.68634-102.68448 -25.31207 -25.30810 -25.30746
 Alpha  occ. eigenvalues --  -19.61840 -19.60633 -19.60226 -14.78510 -14.77236
 Alpha  occ. eigenvalues --  -10.82160 -10.68484 -10.65022 -10.63731 -10.63632
 Alpha  occ. eigenvalues --  -10.63075 -10.59826 -10.58759 -10.58750 -10.57211
 Alpha  occ. eigenvalues --  -10.53854 -10.53608 -10.52776 -10.52589  -9.83235
 Alpha  occ. eigenvalues --   -9.83048  -7.55646  -7.55461  -7.54980  -7.54951
 Alpha  occ. eigenvalues --   -7.54794  -7.54764  -1.47581  -1.38431  -1.37940
 Alpha  occ. eigenvalues --   -1.17571  -1.16442  -1.06745  -1.06371  -1.03157
 Alpha  occ. eigenvalues --   -0.99964  -0.98916  -0.95200  -0.88658  -0.87056
 Alpha  occ. eigenvalues --   -0.85702  -0.84575  -0.81918  -0.77496  -0.73615
 Alpha  occ. eigenvalues --   -0.72205  -0.71831  -0.69844  -0.69347  -0.67955
 Alpha  occ. eigenvalues --   -0.67283  -0.65425  -0.63443  -0.61745  -0.59157
 Alpha  occ. eigenvalues --   -0.58464  -0.58024  -0.57374  -0.55132  -0.54664
 Alpha  occ. eigenvalues --   -0.53989  -0.53882  -0.53610  -0.53037  -0.52735
 Alpha  occ. eigenvalues --   -0.51990  -0.51880  -0.51365  -0.51272  -0.50650
 Alpha  occ. eigenvalues --   -0.50142  -0.48982  -0.46493  -0.46340  -0.45921
 Alpha  occ. eigenvalues --   -0.45629  -0.44764  -0.44279  -0.44074  -0.41729
 Alpha  occ. eigenvalues --   -0.41402  -0.40108  -0.39696  -0.39471  -0.39339
 Alpha  occ. eigenvalues --   -0.39011  -0.38603  -0.36335  -0.35785  -0.33746
 Alpha  occ. eigenvalues --   -0.32818  -0.32510  -0.32009  -0.31344  -0.29428
 Alpha virt. eigenvalues --   -0.01513  -0.00658   0.00985   0.02376   0.02533
 Alpha virt. eigenvalues --    0.03342   0.03687   0.04340   0.04397   0.04627
 Alpha virt. eigenvalues --    0.04929   0.05245   0.05505   0.05892   0.06355

 Mulliken charges:
               1
     1  C   -1.344840
     2  C    0.846290
     3  C   -0.305838
     4  C   -0.604143
     5  C   -0.017041
     6  C   -0.221119
     7  N   -0.664037
     8  C    0.430299
     9  N   -0.726467
    10  O   -0.688342
    11  C   -0.191544
    12  C   -0.310217
    13  C   -0.849524
    14  H    0.540905
    15  H    0.523750
    16  H    0.238149
    17  H    0.236701
    18  H    0.236736
    19  H    0.236975
    20  H    0.221596
    21  H    0.222910
    22  H    0.221423
    23  H    0.300572
    24  H    0.296805
    25  C    1.645357
    26  F   -0.337552
    27  F   -0.274537
    28  F   -0.279355
    29  Cl   0.217947
    30  Cl   0.250523
    31  O   -0.763857
    32  O   -0.746676
    33  C    0.725216
    34  C   -0.482261
    35  C   -0.739080
    36  H    0.245605
    37  H    0.244884
    38  H    0.222648
    39  H    0.218573
    40  H    0.222565
 Sum of Mulliken charges =  -1.00000

 Dipole moment (field-independent basis, Debye):
    X=              5.9290    Y=              0.2505    Z=              0.4411  Tot=              5.9507
 Quadrupole moment (field-independent basis, Debye-Ang):
   XX=           -188.7804   YY=           -173.1840   ZZ=           -163.2357
   XY=              8.4458   XZ=            -10.2591   YZ=              5.0936

  Exact polarizability: 351.306   9.158 294.251   6.449  40.145 260.357
 Approx polarizability: 286.614   3.359 251.163   6.168  35.962 230.172

                      1                      2                      3
                      A                      A                      A
 Frequencies --     19.0690                21.2887                22.6427
 Red. masses --      7.5184                10.0019                 6.3122
 Frc consts  --      0.0016                 0.0027                 0.0019
 IR Inten    --      0.3073                 0.3536                 2.3622

                      4                      5                      6
                      A                      A                      A
 Frequencies --     29.4099                32.9945                39.9020
 Red. masses --      4.0656                 5.5207                 2.5223
 Frc consts  --      0.0021                 0.0035                 0.0024
 IR Inten    --      0.4688                 1.2967                 3.6462

                      7                      8                      9
                      A                      A                      A
 Frequencies --     58.9977                59.8927                64.7500
 Red. masses --      6.6913                 3.4589                 2.2024
 Frc consts  --      0.0137                 0.0073                 0.0054
 IR Inten    --      5.5140                12.6244                 3.9817

                     10                     11                     12
                      A                      A                      A
 Frequencies --     69.5278                82.5385                88.6971
 Red. masses --      6.2097                 7.0373                 5.6692
 Frc consts  --      0.0177                 0.0282                 0.0263
 IR Inten    --      0.5566                 8.5115                10.6039

                     13                     14                     15
                      A                      A                      A
 Frequencies --    105.0504               120.9524               134.4724
 Red. masses --      9.0739                 7.2363                16.0642
 Frc consts  --      0.0590                 0.0624                 0.1711
 IR Inten    --      7.7652                 6.3372                 6.2763

                     16                     17                     18
                      A                      A                      A
 Frequencies --    148.9913               160.7811               164.9166
 Red. masses --      6.9167                 3.1579                 6.4086
 Frc consts  --      0.0905                 0.0481                 0.1027
 IR Inten    --     12.8332                18.6179                16.5975

                     19                     20                     21
                      A                      A                      A
 Frequencies --    196.5445               208.3632               232.1571
 Red. masses --     13.9819                 4.7303                 6.5503
 Frc consts  --      0.3182                 0.1210                 0.2080
 IR Inten    --      3.1805                 0.3640                11.2342

                     22                     23                     24
                      A                      A                      A
 Frequencies --    239.6960               243.6399               288.3344
 Red. masses --      1.1298                 1.0931                 9.9759
 Frc consts  --      0.0382                 0.0382                 0.4886
 IR Inten    --      0.1034                 1.8011                 0.7488

                     25                     26                     27
                      A                      A                      A
 Frequencies --    296.5199               309.5987               331.1262
 Red. masses --      8.0038                 4.4630                 7.2876
 Frc consts  --      0.4146                 0.2520                 0.4708
 IR Inten    --      0.9320                10.3232                 6.8291

                     28                     29                     30
                      A                      A                      A
 Frequencies --    337.9058               340.4157               395.7836
 Red. masses --      9.0958                 7.7104                 7.4603
 Frc consts  --      0.6119                 0.5264                 0.6885
 IR Inten    --     13.2286                16.4446                 8.9845

                     31                     32                     33
                      A                      A                      A
 Frequencies --    419.7473               466.2371               518.0763
 Red. masses --      7.2604                 9.7133                 5.6387
 Frc consts  --      0.7537                 1.2440                 0.8917
 IR Inten    --      8.2801                11.3937                22.6839

                     34                     35                     36
                      A                      A                      A
 Frequencies --    521.3664               525.3910               532.9958
 Red. masses --      5.5388                 6.8728                 5.4636
 Frc consts  --      0.8871                 1.1178                 0.9145
 IR Inten    --     16.7996                11.9522                 1.6820

                     37                     38                     39
                      A                      A                      A
 Frequencies --    546.6169               580.3436               612.2919
 Red. masses --      9.3646                 1.9096                 8.0080
 Frc consts  --      1.6486                 0.3789                 1.7688
 IR Inten    --      1.8504                 0.6146                 6.1535

                     40                     41                     42
                      A                      A                      A
 Frequencies --    647.4915               665.2181               677.0058
 Red. masses --      2.8206                 6.1796                 1.7022
 Frc consts  --      0.6967                 1.6112                 0.4597
 IR Inten    --    112.7718                26.1604                29.1360

                     43                     44                     45
                      A                      A                      A
 Frequencies --    684.3802               693.6935               718.8119
 Red. masses --      1.6959                 4.1778                 2.7359
 Frc consts  --      0.4680                 1.1845                 0.8329
 IR Inten    --    222.9357                63.7495               164.0686

                     46                     47                     48
                      A                      A                      A
 Frequencies --    759.9817               775.2651               783.2795
 Red. masses --      1.1916                 3.0418                 5.6509
 Frc consts  --      0.4055                 1.0771                 2.0427
 IR Inten    --      8.7960                19.4196                18.0364

                     49                     50                     51
                      A                      A                      A
 Frequencies --    814.7358               821.3972               852.2102
 Red. masses --      9.9827                 1.5014                 7.5562
 Frc consts  --      3.9042                 0.5968                 3.2333
 IR Inten    --    138.3423                35.9959                70.7053

                     52                     53                     54
                      A                      A                      A
 Frequencies --    887.7859               905.0134               910.8699
 Red. masses --      3.9259                 1.1600                 1.8929
 Frc consts  --      1.8231                 0.5598                 0.9253
 IR Inten    --     36.5684                 2.1646                86.9802

                     55                     56                     57
                      A                      A                      A
 Frequencies --    916.0279               921.6839               932.1646
 Red. masses --      3.1132                 1.3761                 1.7812
 Frc consts  --      1.5391                 0.6888                 0.9119
 IR Inten    --     37.7701                 3.9464                 0.6334

                     58                     59                     60
                      A                      A                      A
 Frequencies --   1028.4165              1049.5143              1081.8007
 Red. masses --      1.6443                 4.3618                 2.6287
 Frc consts  --      1.0247                 2.8307                 1.8126
 IR Inten    --     11.7116                24.5130                 7.5376

                     61                     62                     63
                      A                      A                      A
 Frequencies --   1109.2056              1113.0572              1116.9461
 Red. masses --      1.7902                 2.3397                 2.7990
 Frc consts  --      1.2977                 1.7078                 2.0574
 IR Inten    --      2.0884                15.2237                 5.0583

                     64                     65                     66
                      A                      A                      A
 Frequencies --   1142.6453              1156.7847              1162.3626
 Red. masses --      5.3777                 2.4298                12.3114
 Frc consts  --      4.1368                 1.9157                 9.8004
 IR Inten    --    121.4749                19.6429               442.1223

                     67                     68                     69
                      A                      A                      A
 Frequencies --   1180.8376              1181.4909              1199.9314
 Red. masses --      3.0562                 1.7315                12.4421
 Frc consts  --      2.5108                 1.4241                10.5549
 IR Inten    --      3.9923                 1.5236               336.3722

                     70                     71                     72
                      A                      A                      A
 Frequencies --   1252.7873              1279.8598              1291.8857
 Red. masses --      1.4868                 1.1951                 1.1707
 Frc consts  --      1.3749                 1.1534                 1.1512
 IR Inten    --     37.7217                 0.8803                 0.2875

                     73                     74                     75
                      A                      A                      A
 Frequencies --   1297.8409              1317.4789              1320.3783
 Red. masses --      2.3589                 1.9558                 3.3694
 Frc consts  --      2.3410                 2.0001                 3.4610
 IR Inten    --    168.9959               242.2532               129.5839

                     76                     77                     78
                      A                      A                      A
 Frequencies --   1326.9363              1337.6501              1353.9529
 Red. masses --      1.0788                 1.7445                 1.7058
 Frc consts  --      1.1192                 1.8391                 1.8424
 IR Inten    --      2.0055                95.1722               311.7300

                     79                     80                     81
                      A                      A                      A
 Frequencies --   1375.4275              1420.0414              1421.6988
 Red. masses --      7.1873                 1.2810                 1.3120
 Frc consts  --      8.0111                 1.5220                 1.5625
 IR Inten    --    589.2380                 2.6471                32.7737

                     82                     83                     84
                      A                      A                      A
 Frequencies --   1429.7451              1449.5703              1455.5907
 Red. masses --      1.6515                 3.3739                 1.3419
 Frc consts  --      1.9890                 4.1770                 1.6751
 IR Inten    --      4.2315               180.7296               169.5511

                     85                     86                     87
                      A                      A                      A
 Frequencies --   1472.5287              1490.5647              1501.0875
 Red. masses --      2.7675                 1.0593                 1.0394
 Frc consts  --      3.5356                 1.3866                 1.3799
 IR Inten    --    265.0497                 7.9911                11.1480

                     88                     89                     90
                      A                      A                      A
 Frequencies --   1502.5514              1508.5908              1512.6595
 Red. masses --      1.0399                 1.1176                 1.0832
 Frc consts  --      1.3833                 1.4986                 1.4603
 IR Inten    --     11.6588                76.4942                 1.7604

                     91                     92                     93
                      A                      A                      A
 Frequencies --   1530.7894              1538.3883              1556.1430
 Red. masses --      1.1047                 2.6610                 7.1687
 Frc consts  --      1.5252                 3.7105                10.2279
 IR Inten    --     54.5047                34.7908              1173.2178

                     94                     95                     96
                      A                      A                      A
 Frequencies --   1565.7613              1614.1113              1649.0141
 Red. masses --      2.8272                 2.0531                 7.0791
 Frc consts  --      4.0838                 3.1515                11.3417
 IR Inten    --    189.2948              1201.0149                52.6572

                     97                     98                     99
                      A                      A                      A
 Frequencies --   1680.1467              1694.7700              3068.4875
 Red. masses --      4.7162                 5.8475                 1.0589
 Frc consts  --      7.8439                 9.8955                 5.8745
 IR Inten    --    545.1104               362.9989                20.4898

                    100                    101                    102
                      A                      A                      A
 Frequencies --   3074.9949              3076.4724              3082.8116
 Red. masses --      1.0511                 1.0445                 1.0485
 Frc consts  --      5.8560                 5.8248                 5.8709
 IR Inten    --     29.1528               122.2917                58.0516

                    103                    104                    105
                      A                      A                      A
 Frequencies --   3084.1077              3099.5084              3119.3048
 Red. masses --      1.0493                 1.1040                 1.1065
 Frc consts  --      5.8805                 6.2489                 6.3434
 IR Inten    --      9.5085                 6.8784                60.1094

                    106                    107                    108
                      A                      A                      A
 Frequencies --   3119.5683              3144.9479              3153.7075
 Red. masses --      1.1016                 1.1038                 1.1025
 Frc consts  --      6.3161                 6.4323                 6.4606
 IR Inten    --      6.9379                94.1920                56.1048

                    109                    110                    111
                      A                      A                      A
 Frequencies --   3155.8063              3157.9876              3209.6805
 Red. masses --      1.1021                 1.1036                 1.0880
 Frc consts  --      6.4669                 6.4844                 6.6041
 IR Inten    --     47.4880                58.2568              1264.4844

                    112                    113                    114
                      A                      A                      A
 Frequencies --   3247.8765              3262.6255              3315.1889
 Red. masses --      1.0943                 1.0940                 1.0873
 Frc consts  --      6.8010                 6.8610                 7.0405
 IR Inten    --      6.4657                 8.5594              1464.0097

 - Thermochemistry -
 -------------------
 Temperature   298.150 Kelvin.  Pressure   1.00000 Atm.
 Atom     1 has atomic number  6 and mass  12.00000

 Molecular mass:   387.04901 amu.
 Principal axes and moments of inertia in atomic units:
                           1         2         3
     Eigenvalues --  6482.12041********************
           X            0.99999   0.00393  -0.00297
           Y           -0.00404   0.99931  -0.03703
           Z            0.00282   0.03704   0.99931
 This molecule is an asymmetric top.
 Rotational symmetry number  1.
 Warning -- assumption of classical behavior for rotation
           may cause significant error
 Rotational temperatures (Kelvin)      0.01336     0.00479     0.00403
 Rotational constants (GHZ):           0.27842     0.09981     0.08402
 Zero-point vibrational energy     777447.4 (Joules/Mol)
                                  185.81440 (Kcal/Mol)
 Warning -- explicit consideration of  39 degrees of freedom as
           vibrations may cause significant error
 Vibrational temperatures:     27.44    30.63    32.58    42.31    47.47
          (Kelvin)             57.41    84.88    86.17    93.16   100.03
                              118.75   127.62   151.14   174.02   193.48
                              214.37   231.33   237.28   282.78   299.79
                              334.02   344.87   350.54   414.85   426.63
                              445.44   476.42   486.17   489.78   569.44
                              603.92   670.81   745.40   750.13   755.92
                              766.86   786.46   834.98   880.95   931.59
                              957.10   974.06   984.67   998.07  1034.21
                             1093.44  1115.43  1126.96  1172.22  1181.81
                             1226.14  1277.32  1302.11  1310.54  1317.96
                             1326.10  1341.18  1479.66  1510.02  1556.47
                             1595.90  1601.44  1607.03  1644.01  1664.35
                             1672.38  1698.96  1699.90  1726.43  1802.48
                             1841.43  1858.73  1867.30  1895.56  1899.73
                             1909.16  1924.58  1948.03  1978.93  2043.12
                             2045.50  2057.08  2085.61  2094.27  2118.64
                             2144.59  2159.73  2161.83  2170.52  2176.38
                             2202.46  2213.39  2238.94  2252.78  2322.34
                             2372.56  2417.35  2438.39  4414.86  4424.23
                             4426.35  4435.47  4437.34  4459.50  4487.98
                             4488.36  4524.87  4537.48  4540.50  4543.63
                             4618.01  4672.96  4694.18  4769.81

 Zero-point correction=                           0.296114 (Hartree/Particle)
 Thermal correction to Energy=                    0.322169
 Thermal correction to Enthalpy=                  0.323114
 Thermal correction to Gibbs Free Energy=         0.233970
 Sum of electronic and zero-point Energies=          -2097.680180
 Sum of electronic and thermal Energies=             -2097.654125
 Sum of electronic and thermal Enthalpies=           -2097.653181
 Sum of electronic and thermal Free Energies=        -2097.742325

                     E (Thermal)             CV                S
                      KCal/Mol        Cal/Mol-Kelvin    Cal/Mol-Kelvin
 Total                  202.164             90.138            187.619
 Electronic               0.000              0.000              0.000
 Translational            0.889              2.981             43.752
 Rotational               0.889              2.981             36.175
 Vibrational            200.387             84.177            107.692
 Vibration     1          0.593              1.986              6.729
 Vibration     2          0.593              1.985              6.510
 Vibration     3          0.593              1.985              6.388
 Vibration     4          0.593              1.984              5.869
 Vibration     5          0.594              1.983              5.641
 Vibration     6          0.594              1.981              5.264
 Vibration     7          0.596              1.974              4.490
 Vibration     8          0.597              1.973              4.461
 Vibration     9          0.597              1.971              4.307
 Vibration    10          0.598              1.969              4.167
 Vibration    11          0.600              1.961              3.830
 Vibration    12          0.602              1.957              3.689
 Vibration    13          0.605              1.945              3.358
 Vibration    14          0.609              1.932              3.085
 Vibration    15          0.613              1.919              2.881
 Vibration    16          0.618              1.904              2.685
 Vibration    17          0.622              1.890              2.541
 Vibration    18          0.623              1.886              2.493
 Vibration    19          0.636              1.845              2.165
 Vibration    20          0.642              1.828              2.058
 Vibration    21          0.653              1.792              1.862
 Vibration    22          0.657              1.780              1.805
 Vibration    23          0.659              1.773              1.776
 Vibration    24          0.685              1.695              1.484
 Vibration    25          0.690              1.680              1.436
 Vibration    26          0.699              1.655              1.364
 Vibration    27          0.713              1.613              1.255
 Vibration    28          0.718              1.600              1.222
 Vibration    29          0.720              1.595              1.210
 Vibration    30          0.763              1.479              0.978
 Vibration    31          0.782              1.427              0.893
 Vibration    32          0.824              1.325              0.748
 Vibration    33          0.873              1.210              0.614
 Vibration    34          0.876              1.203              0.607
 Vibration    35          0.880              1.194              0.598
 Vibration    36          0.888              1.177              0.581
 Vibration    37          0.902              1.147              0.551
 Vibration    38          0.937              1.074              0.485
 Vibration    39          0.972              1.006              0.429

 Normal termination of Gaussian 09 at Tue Feb 19 13:56:08 2019.
