 Gaussian 09, Revision E.01,

 ----------------------------------------------------------------------
 # M062X/Gen 6D SCF=Tight INT(grid=ultrafine) OPT IOP(2/17=4) SCRF=(SMD
 ,Solvent=h2o) maxdisk=2147483648
 ----------------------------------------------------------------------

 ------------------------------------
 4SsulfCF3_a1.M062X_6-31pGd_opt_water
 ------------------------------------
 Symbolic Z-matrix:
 Charge = -1 Multiplicity = 1

 SCF Done:  E(RM062X) =  -1308.62550923     A.U. after   16 cycles
 SCF Done:  E(RM062X) =  -1308.64762803     A.U. after   14 cycles
 SCF Done:  E(RM062X) =  -1308.64892678     A.U. after   14 cycles
 SCF Done:  E(RM062X) =  -1308.64958248     A.U. after   14 cycles
 SCF Done:  E(RM062X) =  -1308.64956512     A.U. after   14 cycles
 SCF Done:  E(RM062X) =  -1308.64971835     A.U. after   11 cycles
 SCF Done:  E(RM062X) =  -1308.64978338     A.U. after   12 cycles
 SCF Done:  E(RM062X) =  -1308.64979548     A.U. after   13 cycles
 SCF Done:  E(RM062X) =  -1308.63746053     A.U. after   17 cycles
 SCF Done:  E(RM062X) =  -1308.64970522     A.U. after   14 cycles
 SCF Done:  E(RM062X) =  -1308.65113503     A.U. after   14 cycles
 SCF Done:  E(RM062X) =  -1308.65119889     A.U. after   12 cycles
 SCF Done:  E(RM062X) =  -1308.65120908     A.U. after   12 cycles
 SCF Done:  E(RM062X) =  -1308.65121093     A.U. after   12 cycles
 SCF Done:  E(RM062X) =  -1308.65121500     A.U. after   12 cycles
 SCF Done:  E(RM062X) =  -1308.65121559     A.U. after   11 cycles
 SCF Done:  E(RM062X) =  -1308.65121598     A.U. after   11 cycles
 SCF Done:  E(RM062X) =  -1308.65121612     A.U. after   11 cycles
 Optimization completed.
    -- Stationary point found.

 1\1\GINC-R3718\FOpt\RM062X\Gen\C11H12F3N2O1S1(1-)\ROOT\30-Oct-2018\0\\
 # M062X/Gen 6D SCF=Tight INT(grid=ultrafine) OPT IOP(2/17=4) SCRF=(SMD
 ,Solvent=h2o) maxdisk=2147483648\\4SsulfCF3_a1.M062X_6-31pGd_opt_water
 \\-1,1\C,-1.6546327783,1.8193543935,0.0110962778\C,-0.280278707,1.3287
 533294,0.4563272837\C,0.8284198096,2.2349163622,-0.0592146016\N,2.1342
 324737,1.7408638608,0.3611643736\C,3.2860689077,2.3590393351,-0.110181
 7196\O,3.1922408952,3.5564776796,-0.5107517522\N,4.3733769368,1.572804
 4135,-0.0977142452\C,5.6255891634,2.1095842438,-0.2849570443\C,6.02527

 Normal termination of Gaussian 09 at Tue Oct 30 14:12:51 2018.
 Gaussian 09:  ES64L-G09RevE.01 30-Nov-2015

 ----------------------------------------------------------------------
 # M062X/Gen 6D SCF=Tight INT(grid=ultrafine) OPT IOP(2/17=4) SCRF=(SMD
 ,Solvent=h2o) Freq=Noraman maxdisk=2147483648 geom=check guess=read IO
 P(2/17=4)
 ----------------------------------------------------------------------

 ------------------------------------
 4SsulfCF3_a1.M062X_6-31pGd_opt_water
 ------------------------------------
 Structure from the checkpoint file:  "4SsulfCF3_a1.M062X_6-31pGd_opt_water.chk"
 Charge = -1 Multiplicity = 1

 SCF Done:  E(RM062X) =  -1308.65121612     A.U. after    1 cycles
 Optimization completed.
    -- Stationary point found.

 1\1\GINC-R3718\FOpt\RM062X\Gen\C11H12F3N2O1S1(1-)\ROOT\30-Oct-2018\0\\
 # M062X/Gen 6D SCF=Tight INT(grid=ultrafine) OPT IOP(2/17=4) SCRF=(SMD
 ,Solvent=h2o) Freq=Noraman maxdisk=2147483648 geom=check guess=read IO
 P(2/17=4)\\4SsulfCF3_a1.M062X_6-31pGd_opt_water\\-1,1\C,-1.6546327783,
 1.8193543935,0.0110962778\C,-0.280278707,1.3287533294,0.4563272837\C,0
 .8284198096,2.2349163622,-0.0592146016\N,2.1342324737,1.7408638608,0.3
 611643736\C,3.2860689077,2.3590393351,-0.1101817196\O,3.1922408952,3.5
 564776796,-0.5107517522\N,4.3733769368,1.5728044135,-0.0977142452\C,5.

 Normal termination of Gaussian 09 at Tue Oct 30 14:13:53 2018.

 ----------------------------------------------------------------------
 #N Geom=AllCheck Guess=TCheck SCRF=Check Test GenChk RM062X/ChkBas Fre
 q
 ----------------------------------------------------------------------

 Structure from the checkpoint file:  "4SsulfCF3_a1.M062X_6-31pGd_opt_water.chk"
 ------------------------------------
 4SsulfCF3_a1.M062X_6-31pGd_opt_water
 ------------------------------------
 Charge = -1 Multiplicity = 1

                         Standard orientation:
 ---------------------------------------------------------------------
 Center     Atomic      Atomic             Coordinates (Angstroms)
 Number     Number       Type             X           Y           Z
 ---------------------------------------------------------------------
      1          6           0        7.821835   -0.183287    0.194470
      2          6           0        6.500697    0.414477    0.668856
      3          6           0        5.310749   -0.288043    0.031191
      4          7           0        4.058843    0.307746    0.482544
      5          6           0        2.858294   -0.110591   -0.078449
      6          8           0        2.824363   -1.257350   -0.614091
      7          7           0        1.870388    0.793562    0.005858
      8          6           0        0.570662    0.435246   -0.265348
      9          6           0        0.009071   -0.855540   -0.082490
     10          6           0       -0.316141    1.458330   -0.686347
     11          6           0       -1.659833    1.217553   -0.924576
     12          6           0       -2.186947   -0.066952   -0.737393
     13          6           0       -1.338753   -1.096667   -0.314245
     14          1           0        8.674206    0.320830    0.660090
     15          1           0        7.927286   -0.088661   -0.892111
     16          1           0        7.882030   -1.248139    0.446260
     17          1           0        6.465186    1.483261    0.420095
     18          1           0        6.424125    0.336761    1.760341
     19          1           0        5.320512   -1.348112    0.304158
     20          1           0        5.397598   -0.236964   -1.065066
     21          1           0        4.101000    1.310389    0.632893
     22          1           0        0.638299   -1.667856    0.260914
     23          1           0        0.083114    2.459574   -0.825532
     24          1           0       -2.306100    2.027348   -1.253627
     25         16           0       -3.904704   -0.390634   -1.059500
     26          6           0       -4.561749   -0.025227    0.581846
     27          9           0       -4.327241    1.236215    0.979644
     28          9           0       -5.892467   -0.200080    0.569113
     29          9           0       -4.062415   -0.819414    1.543316
     30          1           0       -1.739724   -2.094927   -0.156244
 ---------------------------------------------------------------------

 SCF Done:  E(RM062X) =  -1308.65121612     A.U. after    1 cycles

 The electronic state is 1-A.
 Alpha  occ. eigenvalues --  -89.95174 -25.31530 -25.31111 -25.31102 -19.59433
 Alpha  occ. eigenvalues --  -14.75538 -14.71115 -10.83090 -10.64777 -10.58465
 Alpha  occ. eigenvalues --  -10.57854 -10.56324 -10.55839 -10.55825 -10.54110
 Alpha  occ. eigenvalues --  -10.54082 -10.53590 -10.52689  -8.29633  -6.21728
 Alpha  occ. eigenvalues --   -6.21452  -6.21021  -1.47890  -1.38739  -1.38287
 Alpha  occ. eigenvalues --   -1.13734  -1.00799  -0.99027  -0.95184  -0.89807
 Alpha  occ. eigenvalues --   -0.86823  -0.84172  -0.82377  -0.78102  -0.75291
 Alpha  occ. eigenvalues --   -0.70487  -0.70127  -0.69348  -0.68265  -0.66851
 Alpha  occ. eigenvalues --   -0.64172  -0.62937  -0.58616  -0.58307  -0.58094
 Alpha  occ. eigenvalues --   -0.54648  -0.54459  -0.53995  -0.53481  -0.52922
 Alpha  occ. eigenvalues --   -0.52133  -0.51593  -0.50710  -0.49409  -0.48342
 Alpha  occ. eigenvalues --   -0.47693  -0.46101  -0.45284  -0.44522  -0.43270
 Alpha  occ. eigenvalues --   -0.41399  -0.40554  -0.40143  -0.38977  -0.38623
 Alpha  occ. eigenvalues --   -0.36229  -0.33838  -0.32425  -0.31125  -0.30446
 Alpha  occ. eigenvalues --   -0.29650  -0.23828
 Alpha virt. eigenvalues --    0.00518   0.01720   0.02194   0.02733   0.03269
 Alpha virt. eigenvalues --    0.03900   0.04034   0.04421   0.04694   0.05059
 Alpha virt. eigenvalues --    0.05325   0.05969   0.06799   0.07176   0.07550

 Mulliken charges:
               1
     1  C   -0.750058
     2  C   -0.350036
     3  C   -0.394057
     4  N   -0.607424
     5  C    0.818896
     6  O   -0.850479
     7  N   -0.643688
     8  C    0.064084
     9  C    0.079448
    10  C   -0.482280
    11  C   -0.311592
    12  C   -0.154053
    13  C   -0.529945
    14  H    0.220111
    15  H    0.219834
    16  H    0.219237
    17  H    0.222534
    18  H    0.227530
    19  H    0.222629
    20  H    0.208144
    21  H    0.431056
    22  H    0.240381
    23  H    0.235349
    24  H    0.252253
    25  S    0.448464
    26  C    0.579463
    27  F   -0.285187
    28  F   -0.298912
    29  F   -0.282562
    30  H    0.250859
 Sum of Mulliken charges =  -1.00000

 Dipole moment (field-independent basis, Debye):
    X=             -2.3160    Y=              2.4249    Z=              0.9028  Tot=              3.4727
 Quadrupole moment (field-independent basis, Debye-Ang):
   XX=           -142.3528   YY=           -118.5357   ZZ=           -121.7476
   XY=             10.0497   XZ=              7.3732   YZ=             -5.0003

  Exact polarizability: 364.682   1.247 238.267  21.113  -2.953 183.477
 Approx polarizability: 272.837   2.983 208.185  16.962  -2.399 162.133

                      1                      2                      3
                      A                      A                      A
 Frequencies --     23.6107                37.0774                38.4795
 Red. masses --      5.9789                 3.9549                 5.1375
 Frc consts  --      0.0020                 0.0032                 0.0045
 IR Inten    --      4.3270                 2.1913                 2.4097

                      4                      5                      6
                      A                      A                      A
 Frequencies --     46.1352                52.1045                68.4930
 Red. masses --      4.8260                 3.7504                 5.8552
 Frc consts  --      0.0061                 0.0060                 0.0162
 IR Inten    --      1.2545                 3.4958                 3.2021

                      7                      8                      9
                      A                      A                      A
 Frequencies --     88.2603               106.8858               134.4059
 Red. masses --      3.7773                 4.3642                 4.9959
 Frc consts  --      0.0173                 0.0294                 0.0532
 IR Inten    --     13.8725                 3.2574                 8.0085

                     10                     11                     12
                      A                      A                      A
 Frequencies --    175.4540               200.5448               224.0070
 Red. masses --      3.4305                 6.0518                 5.4327
 Frc consts  --      0.0622                 0.1434                 0.1606
 IR Inten    --      5.0686                 9.4018                 4.8429

                     13                     14                     15
                      A                      A                      A
 Frequencies --    241.1023               268.2517               307.8548
 Red. masses --      1.2068                 5.8045                 7.1663
 Frc consts  --      0.0413                 0.2461                 0.4002
 IR Inten    --      0.7807                 7.5141                 4.7863

                     16                     17                     18
                      A                      A                      A
 Frequencies --    330.2910               345.7107               350.5582
 Red. masses --      6.0941                12.7689                 5.5818
 Frc consts  --      0.3917                 0.8991                 0.4042
 IR Inten    --     15.2961                 1.1681                27.2871

                     19                     20                     21
                      A                      A                      A
 Frequencies --    410.9750               426.2818               431.2205
 Red. masses --      5.7261                 3.4405                 4.7956
 Frc consts  --      0.5698                 0.3684                 0.5254
 IR Inten    --     27.7299                 2.6992                 8.7318

                     22                     23                     24
                      A                      A                      A
 Frequencies --    479.4766               500.4617               530.5049
 Red. masses --     16.0537                 2.9519                 3.2425
 Frc consts  --      2.1745                 0.4356                 0.5377
 IR Inten    --     13.5795                68.8294                21.4939

                     25                     26                     27
                      A                      A                      A
 Frequencies --    539.8210               567.4455               578.9010
 Red. masses --     17.8888                 2.9194                 2.7202
 Frc consts  --      3.0714                 0.5539                 0.5371
 IR Inten    --      3.1874               197.9968                88.0610

                     28                     29                     30
                      A                      A                      A
 Frequencies --    637.3835               697.9478               726.3610
 Red. masses --      6.8471                 6.3887                 3.7975
 Frc consts  --      1.6389                 1.8336                 1.1805
 IR Inten    --      2.3071                30.0452                 3.4209

                     31                     32                     33
                      A                      A                      A
 Frequencies --    756.5804               769.3990               772.3549
 Red. masses --      1.1775                10.5555                 4.5748
 Frc consts  --      0.3971                 3.6816                 1.6079
 IR Inten    --     28.5406                26.1478               136.6561

                     34                     35                     36
                      A                      A                      A
 Frequencies --    798.8456               841.3180               850.6230
 Red. masses --      6.1238                 1.2546                 2.7214
 Frc consts  --      2.3025                 0.5232                 1.1602
 IR Inten    --     65.4340                 5.8369                62.0072

                     37                     38                     39
                      A                      A                      A
 Frequencies --    875.3393               904.5491               933.4904
 Red. masses --      3.2541                 1.1630                 1.6431
 Frc consts  --      1.4690                 0.5606                 0.8436
 IR Inten    --     50.7683                21.3586                 0.8083

                     40                     41                     42
                      A                      A                      A
 Frequencies --    980.1595               996.8487              1011.0289
 Red. masses --      1.2981                 1.3466                 3.5718
 Frc consts  --      0.7348                 0.7884                 2.1511
 IR Inten    --      0.5080                 0.7990                39.3896

                     43                     44                     45
                      A                      A                      A
 Frequencies --   1029.5211              1079.5787              1119.6011
 Red. masses --      5.0143                 2.5495                 3.3553
 Frc consts  --      3.1313                 1.7507                 2.4781
 IR Inten    --     91.3821                38.3302               100.2266

                     46                     47                     48
                      A                      A                      A
 Frequencies --   1133.7526              1137.3936              1147.7784
 Red. masses --      1.6191                 1.8223                 4.3665
 Frc consts  --      1.2262                 1.3890                 3.3892
 IR Inten    --    131.2112               291.1348               471.8661

                     49                     50                     51
                      A                      A                      A
 Frequencies --   1160.4755              1165.7513              1183.0302
 Red. masses --     12.7623                 1.8424                 2.5523
 Frc consts  --     10.1263                 1.4752                 2.1046
 IR Inten    --    405.0668                 7.0417               123.4626

                     52                     53                     54
                      A                      A                      A
 Frequencies --   1187.9855              1199.4963              1261.4206
 Red. masses --     12.3242                 1.2357                 1.5301
 Frc consts  --     10.2478                 1.0476                 1.4344
 IR Inten    --    399.6433                10.2654                72.8926

                     55                     56                     57
                      A                      A                      A
 Frequencies --   1281.6416              1317.1388              1322.3482
 Red. masses --      1.5635                 2.8858                 1.2189
 Frc consts  --      1.5132                 2.9497                 1.2558
 IR Inten    --    362.1331                10.5232                 5.9211

                     58                     59                     60
                      A                      A                      A
 Frequencies --   1322.7756              1335.9167              1387.8259
 Red. masses --      1.5579                 1.5239                 2.6706
 Frc consts  --      1.6060                 1.6024                 3.0306
 IR Inten    --     27.7511                58.6111              1245.1522

                     61                     62                     63
                      A                      A                      A
 Frequencies --   1420.6712              1436.3588              1459.7982
 Red. masses --      1.3181                 2.1063                 3.6789
 Frc consts  --      1.5674                 2.5604                 4.6190
 IR Inten    --    101.9455               653.1715               225.2544

                     64                     65                     66
                      A                      A                      A
 Frequencies --   1480.7344              1490.4326              1503.7814
 Red. masses --      2.0110                 1.1139                 1.0402
 Frc consts  --      2.5979                 1.4579                 1.3859
 IR Inten    --    693.9400                64.7189                11.1653

                     67                     68                     69
                      A                      A                      A
 Frequencies --   1512.6435              1527.4241              1531.6328
 Red. masses --      1.1172                 2.8326                 1.1255
 Frc consts  --      1.5061                 3.8936                 1.5556
 IR Inten    --     85.8775              1140.6993                13.2155

                     70                     71                     72
                      A                      A                      A
 Frequencies --   1560.6274              1607.8142              1663.0664
 Red. masses --      3.8679                 6.9218                 6.3207
 Frc consts  --      5.5504                10.5424                10.3000
 IR Inten    --    884.9869                55.4082               177.2547

                     73                     74                     75
                      A                      A                      A
 Frequencies --   3034.8221              3066.7394              3075.0772
 Red. masses --      1.0708                 1.0611                 1.0364
 Frc consts  --      5.8105                 5.8795                 5.7739
 IR Inten    --    101.5342                54.0071                43.4944

                     76                     77                     78
                      A                      A                      A
 Frequencies --   3102.4641              3123.0807              3143.6418
 Red. masses --      1.0981                 1.0965                 1.1035
 Frc consts  --      6.2275                 6.3014                 6.4253
 IR Inten    --     18.4593                67.8876                98.4186

                     79                     80                     81
                      A                      A                      A
 Frequencies --   3153.3117              3217.9909              3222.1006
 Red. masses --      1.1022                 1.0884                 1.0915
 Frc consts  --      6.4571                 6.6405                 6.6764
 IR Inten    --     53.2014                11.3402                 6.1745

                     82                     83                     84
                      A                      A                      A
 Frequencies --   3231.7559              3263.5631              3599.0001
 Red. masses --      1.0958                 1.0922                 1.0768
 Frc consts  --      6.7431                 6.8538                 8.2177
 IR Inten    --     12.6088                 3.8416                57.9522

 - Thermochemistry -
 -------------------
 Temperature   298.150 Kelvin.  Pressure   1.00000 Atm.
 Atom     1 has atomic number  6 and mass  12.00000

 Molecular mass:   277.06224 amu.
 Principal axes and moments of inertia in atomic units:
                           1         2         3
     Eigenvalues --  1207.95315********************
           X            0.99998   0.00089   0.00690
           Y           -0.00003   0.99231  -0.12379
           Z           -0.00696   0.12378   0.99228
 This molecule is an asymmetric top.
 Rotational symmetry number  1.
 Warning -- assumption of classical behavior for rotation
           may cause significant error
 Rotational temperatures (Kelvin)      0.07170     0.00507     0.00505
 Rotational constants (GHZ):           1.49405     0.10571     0.10519
 Zero-point vibrational energy     587716.4 (Joules/Mol)
                                  140.46759 (Kcal/Mol)
 Warning -- explicit consideration of  27 degrees of freedom as
           vibrations may cause significant error
 Vibrational temperatures:     33.97    53.35    55.36    66.38    74.97
          (Kelvin)             98.55   126.99   153.78   193.38   252.44
                              288.54   322.30   346.89   385.95   442.93
                              475.21   497.40   504.37   591.30   613.32
                              620.43   689.86   720.05   763.28   776.68
                              816.43   832.91   917.05  1004.19  1045.07
                             1088.55  1106.99  1111.25  1149.36  1210.47
                             1223.86  1259.42  1301.44  1343.08  1410.23
                             1434.24  1454.64  1481.25  1553.27  1610.85
                             1631.22  1636.45  1651.40  1669.66  1677.25
                             1702.11  1709.24  1725.81  1814.90  1843.99
                             1895.07  1902.56  1903.18  1922.08  1996.77
                             2044.03  2066.60  2100.32  2130.44  2144.40
                             2163.60  2176.35  2197.62  2203.68  2245.39
                             2313.28  2392.78  4366.43  4412.35  4424.34
                             4463.75  4493.41  4522.99  4536.91  4629.97
                             4635.88  4649.77  4695.53  5178.15

 Zero-point correction=                           0.223849 (Hartree/Particle)
 Thermal correction to Energy=                    0.241632
 Thermal correction to Enthalpy=                  0.242576
 Thermal correction to Gibbs Free Energy=         0.174788
 Sum of electronic and zero-point Energies=          -1308.427367
 Sum of electronic and thermal Energies=             -1308.409585
 Sum of electronic and thermal Enthalpies=           -1308.408640
 Sum of electronic and thermal Free Energies=        -1308.476428

                     E (Thermal)             CV                S
                      KCal/Mol        Cal/Mol-Kelvin    Cal/Mol-Kelvin
 Total                  151.626             64.170            142.671
 Electronic               0.000              0.000              0.000
 Translational            0.889              2.981             42.756
 Rotational               0.889              2.981             34.225
 Vibrational            149.849             58.208             65.691
 Vibration     1          0.593              1.985              6.305
 Vibration     2          0.594              1.982              5.409
 Vibration     3          0.594              1.982              5.336
 Vibration     4          0.595              1.979              4.977
 Vibration     5          0.596              1.977              4.736
 Vibration     6          0.598              1.969              4.196
 Vibration     7          0.601              1.957              3.698
 Vibration     8          0.606              1.944              3.325
 Vibration     9          0.613              1.919              2.882
 Vibration    10          0.627              1.873              2.376
 Vibration    11          0.638              1.839              2.128
 Vibration    12          0.649              1.805              1.926
 Vibration    13          0.658              1.777              1.795
 Vibration    14          0.673              1.731              1.607
 Vibration    15          0.698              1.659              1.374
 Vibration    16          0.713              1.615              1.259
 Vibration    17          0.724              1.584              1.186
 Vibration    18          0.727              1.574              1.164
 Vibration    19          0.775              1.446              0.923
 Vibration    20          0.788              1.413              0.871
 Vibration    21          0.792              1.402              0.855
 Vibration    22          0.836              1.296              0.711
 Vibration    23          0.856              1.249              0.657
 Vibration    24          0.885              1.183              0.586
 Vibration    25          0.895              1.162              0.566
 Vibration    26          0.923              1.102              0.509
 Vibration    27          0.935              1.077              0.487

 1\1\GINC-R3718\Freq\RM062X\Gen\C11H12F3N2O1S1(1-)\ROOT\30-Oct-2018\0\\
 #N Geom=AllCheck Guess=TCheck SCRF=Check Test GenChk RM062X/ChkBas Fre
 q\\4SsulfCF3_a1.M062X_6-31pGd_opt_water\\-1,1\C,-1.6546327783,1.819354
 3935,0.0110962778\C,-0.280278707,1.3287533294,0.4563272837\C,0.8284198
 096,2.2349163622,-0.0592146016\N,2.1342324737,1.7408638608,0.361164373
 6\C,3.2860689077,2.3590393351,-0.1101817196\O,3.1922408952,3.556477679
 6,-0.5107517522\N,4.3733769368,1.5728044135,-0.0977142452\C,5.62558916
 34,2.1095842438,-0.2849570443\C,6.0252795905,3.4269435213,0.0611107817

 Normal termination of Gaussian 09 at Tue Oct 30 14:57:47 2018.
