 Gaussian 09, Revision E.01,

 ----------------------------------------------------------------------
 # M062X/Gen 6D SCF=Tight INT(grid=ultrafine) OPT IOP(2/17=4) maxdisk=2
 147483648
 ----------------------------------------------------------------------

 ---------------------------
 4SsulfCF3.M062X_6-31pGd_opt
 ---------------------------
 Symbolic Z-matrix:
 Charge =  0 Multiplicity = 1

 SCF Done:  E(RM062X) =  -1309.09746354     A.U. after   15 cycles
 SCF Done:  E(RM062X) =  -1309.11118182     A.U. after   14 cycles
 SCF Done:  E(RM062X) =  -1309.11219726     A.U. after   15 cycles
 SCF Done:  E(RM062X) =  -1309.11240968     A.U. after   13 cycles
 SCF Done:  E(RM062X) =  -1309.11244525     A.U. after   12 cycles
 SCF Done:  E(RM062X) =  -1309.11244882     A.U. after   11 cycles
 SCF Done:  E(RM062X) =  -1309.11245539     A.U. after   11 cycles
 SCF Done:  E(RM062X) =  -1309.11245682     A.U. after   10 cycles
 SCF Done:  E(RM062X) =  -1309.11245950     A.U. after   11 cycles
 SCF Done:  E(RM062X) =  -1309.11246235     A.U. after   11 cycles
 SCF Done:  E(RM062X) =  -1309.11298782     A.U. after   12 cycles
 SCF Done:  E(RM062X) =  -1309.11300328     A.U. after   12 cycles
 SCF Done:  E(RM062X) =  -1309.11300731     A.U. after   11 cycles
 SCF Done:  E(RM062X) =  -1309.11301034     A.U. after   11 cycles
 SCF Done:  E(RM062X) =  -1309.11301151     A.U. after   10 cycles
 SCF Done:  E(RM062X) =  -1309.11301178     A.U. after   10 cycles
 SCF Done:  E(RM062X) =  -1309.11301180     A.U. after    9 cycles
 SCF Done:  E(RM062X) =  -1309.11301180     A.U. after    9 cycles
 Optimization completed.
    -- Stationary point found.
 Normal termination of Gaussian 09 at Tue Oct 30 13:16:37 2018.
 Gaussian 09:  ES64L-G09RevE.01 30-Nov-2015

 ----------------------------------------------------------------------
 # M062X/Gen 6D SCF=Tight INT(grid=ultrafine) OPT IOP(2/17=4) Freq=Nora
 man maxdisk=2147483648 geom=check guess=read IOP(2/17=4)
 ----------------------------------------------------------------------

 ---------------------------
 4SsulfCF3.M062X_6-31pGd_opt
 ---------------------------
 Structure from the checkpoint file:  "4SsulfCF3.M062X_6-31pGd_opt.chk"
 Charge =  0 Multiplicity = 1

 SCF Done:  E(RM062X) =  -1309.11301180     A.U. after    1 cycles
 Optimization completed.
    -- Stationary point found.
 Normal termination of Gaussian 09 at Tue Oct 30 13:17:33 2018.

 ----------------------------------------------------------------------
 #N Geom=AllCheck Guess=TCheck SCRF=Check Test GenChk RM062X/ChkBas Fre
 q
 ----------------------------------------------------------------------

 Structure from the checkpoint file:  "4SsulfCF3.M062X_6-31pGd_opt.chk"
 ---------------------------
 4SsulfCF3.M062X_6-31pGd_opt
 ---------------------------
 Charge =  0 Multiplicity = 1

                         Standard orientation:
 ---------------------------------------------------------------------
 Center     Atomic      Atomic             Coordinates (Angstroms)
 Number     Number       Type             X           Y           Z
 ---------------------------------------------------------------------
      1          6           0        7.806661   -0.489756    0.408521
      2          6           0        6.557933    0.389119    0.418569
      3          6           0        5.294028   -0.433342    0.203683
      4          7           0        4.117122    0.426853    0.213737
      5          6           0        2.906487   -0.104845   -0.167852
      6          8           0        2.795322   -1.222218   -0.640185
      7          7           0        1.843431    0.772786    0.009289
      8          6           0        0.490915    0.541277   -0.267402
      9          6           0       -0.027903   -0.717240   -0.603117
     10          6           0       -0.375861    1.641706   -0.177872
     11          6           0       -1.734005    1.496156   -0.414858
     12          6           0       -2.253606    0.241470   -0.741720
     13          6           0       -1.392615   -0.852475   -0.836845
     14          1           0        8.710506    0.106405    0.561162
     15          1           0        7.907334   -1.014175   -0.547536
     16          1           0        7.763690   -1.244260    1.201177
     17          1           0        6.623802    1.152623   -0.365582
     18          1           0        6.492304    0.920962    1.378144
     19          1           0        5.209783   -1.217281    0.969951
     20          1           0        5.322610   -0.936612   -0.766489
     21          1           0        4.109120    1.158123    0.914466
     22          1           0        2.080116    1.733016    0.221894
     23          1           0        0.631510   -1.569646   -0.685499
     24          1           0        0.020828    2.621129    0.080049
     25          1           0       -2.395428    2.354081   -0.342440
     26         16           0       -3.992431    0.051512   -1.078350
     27          6           0       -4.544996   -0.287001    0.611798
     28          9           0       -4.275470    0.715379    1.460128
     29          9           0       -5.872107   -0.462644    0.594823
     30          9           0       -3.991442   -1.389482    1.132905
     31          1           0       -1.794773   -1.827976   -1.093531
 ---------------------------------------------------------------------

 SCF Done:  E(RM062X) =  -1309.11301180     A.U. after    1 cycles

 The electronic state is 1-A.
 Alpha  occ. eigenvalues --  -89.95238 -25.30788 -25.30422 -25.30374 -19.62619
 Alpha  occ. eigenvalues --  -14.81903 -14.80019 -10.82733 -10.69949 -10.62375
 Alpha  occ. eigenvalues --  -10.59459 -10.59196 -10.57801 -10.57405 -10.57382
 Alpha  occ. eigenvalues --  -10.56402 -10.56186 -10.55088  -8.29722  -6.21805
 Alpha  occ. eigenvalues --   -6.21552  -6.21093  -1.47304  -1.38116  -1.37681
 Alpha  occ. eigenvalues --   -1.19333  -1.07614  -1.04365  -0.97989  -0.91410
 Alpha  occ. eigenvalues --   -0.89562  -0.86477  -0.84617  -0.79726  -0.77514
 Alpha  occ. eigenvalues --   -0.73196  -0.71421  -0.70025  -0.69620  -0.69461
 Alpha  occ. eigenvalues --   -0.67846  -0.64690  -0.64526  -0.62432  -0.57609
 Alpha  occ. eigenvalues --   -0.57383  -0.57286  -0.55653  -0.54416  -0.54123
 Alpha  occ. eigenvalues --   -0.53529  -0.53484  -0.53122  -0.51621  -0.51346
 Alpha  occ. eigenvalues --   -0.50963  -0.50072  -0.49109  -0.47663  -0.46503
 Alpha  occ. eigenvalues --   -0.44546  -0.43960  -0.42771  -0.42205  -0.41632
 Alpha  occ. eigenvalues --   -0.41268  -0.38557  -0.35978  -0.33595  -0.32576
 Alpha  occ. eigenvalues --   -0.32392  -0.28509
 Alpha virt. eigenvalues --   -0.01055  -0.00568   0.00545   0.01520   0.02189
 Alpha virt. eigenvalues --    0.02847   0.03283   0.03385   0.03751   0.04290
 Alpha virt. eigenvalues --    0.04817   0.05072   0.05783   0.06167   0.06450

 Mulliken charges:
               1
     1  C   -0.720189
     2  C   -0.305465
     3  C   -0.187695
     4  N   -0.572662
     5  C    0.783076
     6  O   -0.566945
     7  N   -0.664093
     8  C   -0.061715
     9  C    0.702328
    10  C   -0.942728
    11  C   -0.241268
    12  C   -0.137077
    13  C   -0.557509
    14  H    0.214854
    15  H    0.215877
    16  H    0.214588
    17  H    0.227182
    18  H    0.202284
    19  H    0.216270
    20  H    0.242710
    21  H    0.384610
    22  H    0.411612
    23  H    0.272795
    24  H    0.196422
    25  H    0.230294
    26  S    0.480099
    27  C    0.559605
    28  F   -0.273993
    29  F   -0.286722
    30  F   -0.268502
    31  H    0.231955
 Sum of Mulliken charges =  -0.00000

 Dipole moment (field-independent basis, Debye):
    X=              5.2475    Y=              3.5587    Z=              1.1906  Tot=              6.4512
 Quadrupole moment (field-independent basis, Debye-Ang):
   XX=           -107.1433   YY=           -107.7672   ZZ=           -115.6244
   XY=              7.0742   XZ=             10.0558   YZ=              1.8172

  Exact polarizability: 254.277   0.056 149.018  10.344   7.972 115.931
 Approx polarizability: 241.118   1.736 205.177  10.692  14.967 150.681

                      1                      2                      3
                      A                      A                      A
 Frequencies --     16.7302                23.5892                37.2110
 Red. masses --      5.7386                 3.9741                 3.2759
 Frc consts  --      0.0009                 0.0013                 0.0027
 IR Inten    --      0.2117                 4.0530                 0.1803

                      4                      5                      6
                      A                      A                      A
 Frequencies --     40.4662                48.7182                61.9918
 Red. masses --     13.7237                 5.6279                 3.2122
 Frc consts  --      0.0132                 0.0079                 0.0073
 IR Inten    --      0.0274                 2.8617                 2.7537

                      7                      8                      9
                      A                      A                      A
 Frequencies --     69.0973                82.2756               151.6383
 Red. masses --      4.5653                 3.6226                 6.3076
 Frc consts  --      0.0128                 0.0144                 0.0855
 IR Inten    --      1.5668                 0.6324                 2.3796

                     10                     11                     12
                      A                      A                      A
 Frequencies --    157.7749               193.1933               216.5708
 Red. masses --      4.6009                 2.7452                 6.6801
 Frc consts  --      0.0675                 0.0604                 0.1846
 IR Inten    --      7.6871                 2.4743                 0.0666

                     13                     14                     15
                      A                      A                      A
 Frequencies --    234.6860               256.8671               304.1140
 Red. masses --      1.1407                 5.6483                 7.8284
 Frc consts  --      0.0370                 0.2196                 0.4266
 IR Inten    --      0.0547                 4.2611                 0.1943

                     16                     17                     18
                      A                      A                      A
 Frequencies --    329.8081               336.0049               348.5029
 Red. masses --      6.5822                 3.4210                 6.5383
 Frc consts  --      0.4218                 0.2276                 0.4679
 IR Inten    --      3.7045                24.6717                32.7554

                     19                     20                     21
                      A                      A                      A
 Frequencies --    370.3048               386.1157               421.1723
 Red. masses --      1.7570                 5.2017                 3.0192
 Frc consts  --      0.1420                 0.4569                 0.3155
 IR Inten    --     35.1072                 9.3017                 0.2662

                     22                     23                     24
                      A                      A                      A
 Frequencies --    433.9338               478.8105               493.2530
 Red. masses --      5.3238                11.3542                 1.3605
 Frc consts  --      0.5906                 1.5337                 0.1950
 IR Inten    --      6.4835                 1.4324               120.1341

                     25                     26                     27
                      A                      A                      A
 Frequencies --    526.5817               530.1181               542.4114
 Red. masses --      3.2764                 3.7285                17.9799
 Frc consts  --      0.5353                 0.6173                 3.1167
 IR Inten    --      9.4332                29.8352                 1.3902

                     28                     29                     30
                      A                      A                      A
 Frequencies --    576.4098               641.8149               701.8958
 Red. masses --      7.5201                 6.9398                 6.0172
 Frc consts  --      1.4721                 1.6843                 1.7466
 IR Inten    --     17.5665                 0.5843                 4.5793

                     31                     32                     33
                      A                      A                      A
 Frequencies --    728.7412               753.4980               766.4415
 Red. masses --      3.9706                 1.9792                 1.8752
 Frc consts  --      1.2424                 0.6621                 0.6490
 IR Inten    --      2.2145                11.5357                 3.7819

                     34                     35                     36
                      A                      A                      A
 Frequencies --    775.3475               791.1742               837.6678
 Red. masses --     17.1265                 5.3015                 1.4228
 Frc consts  --      6.0661                 1.9552                 0.5882
 IR Inten    --     13.2349                11.9933                22.9548

                     37                     38                     39
                      A                      A                      A
 Frequencies --    867.2410               871.8562               902.2677
 Red. masses --      1.5482                 4.0642                 1.1850
 Frc consts  --      0.6861                 1.8202                 0.5684
 IR Inten    --     24.8353                 4.2137                 2.4348

                     40                     41                     42
                      A                      A                      A
 Frequencies --    933.3386               974.0734              1004.5667
 Red. masses --      1.6919                 1.3316                 1.3352
 Frc consts  --      0.8684                 0.7444                 0.7939
 IR Inten    --      2.8413                 0.7467                 1.2644

                     43                     44                     45
                      A                      A                      A
 Frequencies --   1027.7257              1045.0186              1079.7853
 Red. masses --      3.7370                 4.1900                 2.6590
 Frc consts  --      2.3256                 2.6960                 1.8266
 IR Inten    --      4.4582                 2.2705                 3.1233

                     46                     47                     48
                      A                      A                      A
 Frequencies --   1132.4436              1145.4625              1157.0623
 Red. masses --      3.1087                 2.0669                 1.5468
 Frc consts  --      2.3489                 1.5978                 1.2201
 IR Inten    --     46.1632                 9.1392                29.9934

                     49                     50                     51
                      A                      A                      A
 Frequencies --   1165.2763              1170.0282              1181.1440
 Red. masses --      2.6256                 6.4809                 1.7492
 Frc consts  --      2.1006                 5.2273                 1.4378
 IR Inten    --      8.3717               459.6744                 0.6106

                     52                     53                     54
                      A                      A                      A
 Frequencies --   1215.0714              1216.5433              1239.0116
 Red. masses --      8.9636                 1.2308                 1.7599
 Frc consts  --      7.7971                 1.0732                 1.5918
 IR Inten    --    202.2873                63.2243               410.1336

                     55                     56                     57
                      A                      A                      A
 Frequencies --   1240.9422              1281.1335              1297.9963
 Red. masses --      9.3084                 1.3590                 2.5649
 Frc consts  --      8.4455                 1.3142                 2.5461
 IR Inten    --    135.5136                92.9793                 7.1875

                     58                     59                     60
                      A                      A                      A
 Frequencies --   1327.3170              1329.6959              1345.7642
 Red. masses --      1.1808                 1.4262                 1.4896
 Frc consts  --      1.2257                 1.4858                 1.5895
 IR Inten    --     15.7760                 0.3939                11.3081

                     61                     62                     63
                      A                      A                      A
 Frequencies --   1354.9520              1426.0664              1438.2574
 Red. masses --      2.7494                 1.5226                 1.3162
 Frc consts  --      2.9739                 1.8244                 1.6041
 IR Inten    --    151.1481                 1.4152                 1.9394

                     64                     65                     66
                      A                      A                      A
 Frequencies --   1451.2519              1516.3189              1524.7309
 Red. masses --      2.8429                 1.0595                 1.0503
 Frc consts  --      3.5278                 1.4353                 1.4387
 IR Inten    --     63.0885                 8.7803                19.0020

                     67                     68                     69
                      A                      A                      A
 Frequencies --   1527.6914              1533.4319              1541.9066
 Red. masses --      1.0752                 1.5109                 1.1756
 Frc consts  --      1.4785                 2.0932                 1.6468
 IR Inten    --      3.6076               101.7885                98.1723

                     70                     71                     72
                      A                      A                      A
 Frequencies --   1556.1610              1578.7615              1660.1991
 Red. masses --      2.4139                 2.6048                 4.7760
 Frc consts  --      3.4441                 3.8252                 7.7559
 IR Inten    --     17.4607              1124.7793                89.5250

                     73                     74                     75
                      A                      A                      A
 Frequencies --   1681.7831              1825.3070              3057.1135
 Red. masses --      6.0557                 8.8242                 1.0659
 Frc consts  --     10.0914                17.3221                 5.8695
 IR Inten    --     72.8841               262.5883                15.9878

                     76                     77                     78
                      A                      A                      A
 Frequencies --   3058.6244              3080.4184              3107.5521
 Red. masses --      1.0704                 1.0365                 1.0958
 Frc consts  --      5.9002                 5.7945                 6.2349
 IR Inten    --     44.1161                30.2117                15.5729

                     79                     80                     81
                      A                      A                      A
 Frequencies --   3145.4802              3152.7260              3161.1225
 Red. masses --      1.0971                 1.1014                 1.1018
 Frc consts  --      6.3953                 6.4501                 6.4870
 IR Inten    --      0.9719                48.9006                28.2480

                     82                     83                     84
                      A                      A                      A
 Frequencies --   3204.8737              3236.4169              3240.1616
 Red. masses --      1.0898                 1.0920                 1.0943
 Frc consts  --      6.5953                 6.7390                 6.7689
 IR Inten    --     14.1113                 1.3348                 1.5581

                     85                     86                     87
                      A                      A                      A
 Frequencies --   3298.2792              3620.9371              3636.5590
 Red. masses --      1.0930                 1.0772                 1.0770
 Frc consts  --      7.0053                 8.3215                 8.3913
 IR Inten    --      8.9837                20.4925                31.6863

 - Thermochemistry -
 -------------------
 Temperature   298.150 Kelvin.  Pressure   1.00000 Atm.
 Atom     1 has atomic number  6 and mass  12.00000

 Molecular mass:   278.07007 amu.
 Principal axes and moments of inertia in atomic units:
                           1         2         3
     Eigenvalues --  1277.36903********************
           X            0.99996  -0.00384   0.00810
           Y            0.00311   0.99607   0.08848
           Z           -0.00841  -0.08845   0.99604
 This molecule is an asymmetric top.
 Rotational symmetry number  1.
 Warning -- assumption of classical behavior for rotation
           may cause significant error
 Rotational temperatures (Kelvin)      0.06781     0.00506     0.00501
 Rotational constants (GHZ):           1.41286     0.10534     0.10434
 Zero-point vibrational energy     624646.7 (Joules/Mol)
                                  149.29415 (Kcal/Mol)
 Warning -- explicit consideration of  28 degrees of freedom as
           vibrations may cause significant error
 Vibrational temperatures:     24.07    33.94    53.54    58.22    70.09
          (Kelvin)             89.19    99.42   118.38   218.17   227.00
                              277.96   311.60   337.66   369.57   437.55
                              474.52   483.44   501.42   532.79   555.53
                              605.97   624.33   688.90   709.68   757.63
                              762.72   780.41   829.32   923.43  1009.87
                             1048.49  1084.11  1102.74  1115.55  1138.32
                             1205.22  1247.76  1254.41  1298.16  1342.86
                             1401.47  1445.35  1478.67  1503.55  1553.57
                             1629.33  1648.06  1664.75  1676.57  1683.41
                             1699.40  1748.21  1750.33  1782.66  1785.44
                             1843.26  1867.52  1909.71  1913.13  1936.25
                             1949.47  2051.79  2069.33  2088.03  2181.64
                             2193.74  2198.00  2206.26  2218.46  2238.97
                             2271.48  2388.65  2419.71  2626.21  4398.50
                             4400.67  4432.03  4471.07  4525.64  4536.06
                             4548.14  4611.09  4656.48  4661.86  4745.48
                             5209.71  5232.19

 Zero-point correction=                           0.237915 (Hartree/Particle)
 Thermal correction to Energy=                    0.256305
 Thermal correction to Enthalpy=                  0.257249
 Thermal correction to Gibbs Free Energy=         0.187164
 Sum of electronic and zero-point Energies=          -1308.875096
 Sum of electronic and thermal Energies=             -1308.856707
 Sum of electronic and thermal Enthalpies=           -1308.855763
 Sum of electronic and thermal Free Energies=        -1308.925848

                     E (Thermal)             CV                S
                      KCal/Mol        Cal/Mol-Kelvin    Cal/Mol-Kelvin
 Total                  160.834             65.813            147.506
 Electronic               0.000              0.000              0.000
 Translational            0.889              2.981             42.767
 Rotational               0.889              2.981             34.292
 Vibrational            159.056             59.851             70.448
 Vibration     1          0.593              1.986              6.989
 Vibration     2          0.593              1.985              6.307
 Vibration     3          0.594              1.982              5.402
 Vibration     4          0.594              1.981              5.236
 Vibration     5          0.595              1.978              4.869
 Vibration     6          0.597              1.972              4.393
 Vibration     7          0.598              1.969              4.179
 Vibration     8          0.600              1.961              3.836
 Vibration     9          0.619              1.901              2.652
 Vibration    10          0.621              1.894              2.576
 Vibration    11          0.635              1.849              2.197
 Vibration    12          0.645              1.816              1.988
 Vibration    13          0.654              1.788              1.843
 Vibration    14          0.666              1.751              1.683
 Vibration    15          0.695              1.666              1.394
 Vibration    16          0.713              1.616              1.261
 Vibration    17          0.717              1.604              1.231
 Vibration    18          0.726              1.578              1.173
 Vibration    19          0.742              1.533              1.079
 Vibration    20          0.755              1.500              1.015
 Vibration    21          0.784              1.424              0.888
 Vibration    22          0.795              1.396              0.846
 Vibration    23          0.835              1.297              0.713
 Vibration    24          0.849              1.265              0.675
 Vibration    25          0.882              1.191              0.595
 Vibration    26          0.885              1.183              0.587
 Vibration    27          0.898              1.156              0.560
 Vibration    28          0.933              1.082              0.492

 Normal termination of Gaussian 09 at Tue Oct 30 14:02:14 2018.
