 Gaussian 09, Revision E.01,

 ----------------------------------------------------------------------
 # M062X/Gen 6D SCF=Tight INT(grid=ultrafine) OPT IOP(2/17=4) maxdisk=2
 147483648
 ----------------------------------------------------------------------

 ------------------------------
 4SsulfCF3_a1.M062X_6-31pGd_opt
 ------------------------------
 Symbolic Z-matrix:
 Charge = -1 Multiplicity = 1

 SCF Done:  E(RM062X) =  -1308.56642253     A.U. after   17 cycles
 SCF Done:  E(RM062X) =  -1308.56921204     A.U. after   15 cycles
 SCF Done:  E(RM062X) =  -1308.56968363     A.U. after   15 cycles
 SCF Done:  E(RM062X) =  -1308.57068429     A.U. after   14 cycles
 SCF Done:  E(RM062X) =  -1308.57085959     A.U. after   14 cycles
 SCF Done:  E(RM062X) =  -1308.57072568     A.U. after   14 cycles
 SCF Done:  E(RM062X) =  -1308.57102242     A.U. after   14 cycles
 SCF Done:  E(RM062X) =  -1308.57108019     A.U. after   12 cycles
 SCF Done:  E(RM062X) =  -1308.57116833     A.U. after   14 cycles
 SCF Done:  E(RM062X) =  -1308.57120781     A.U. after   13 cycles
 SCF Done:  E(RM062X) =  -1308.57124354     A.U. after   13 cycles
 SCF Done:  E(RM062X) =  -1308.57126478     A.U. after   12 cycles
 SCF Done:  E(RM062X) =  -1308.57126757     A.U. after   12 cycles
 SCF Done:  E(RM062X) =  -1308.57126844     A.U. after   11 cycles
 SCF Done:  E(RM062X) =  -1308.57126880     A.U. after   10 cycles
 SCF Done:  E(RM062X) =  -1308.57126901     A.U. after   10 cycles
 SCF Done:  E(RM062X) =  -1308.57126905     A.U. after   10 cycles
 SCF Done:  E(RM062X) =  -1308.57126905     A.U. after    9 cycles
 Optimization completed.
    -- Stationary point found.

 1\1\GINC-R4070\FOpt\RM062X\Gen\C11H12F3N2O1S1(1-)\ROOT\31-Oct-2018\0\\
 # M062X/Gen 6D SCF=Tight INT(grid=ultrafine) OPT IOP(2/17=4) maxdisk=2
 147483648\\4SsulfCF3_a1.M062X_6-31pGd_opt\\-1,1\C,-1.6505702564,1.9565
 26671,0.3089751944\C,-0.2665176521,1.3368715384,0.4942772916\C,0.81361
 1644,2.106508943,-0.2636585883\N,2.1154551901,1.5094468676,-0.09913707
 67\C,3.275697436,2.310473919,-0.1493275327\O,3.1669458898,3.5290983139
 ,0.0735525255\N,4.3643156889,1.5604757707,-0.4345606184\C,5.6082868832
 ,2.0994427276,-0.4518336007\C,5.9926195499,3.444068513,-0.1524936301\C

 Normal termination of Gaussian 09 at Wed Oct 31 13:12:17 2018.
 Gaussian 09:  ES64L-G09RevE.01 30-Nov-2015

 ----------------------------------------------------------------------
 # M062X/Gen 6D SCF=Tight INT(grid=ultrafine) OPT IOP(2/17=4) Freq=Nora
 man maxdisk=2147483648 geom=check guess=read IOP(2/17=4)
 ----------------------------------------------------------------------

 ------------------------------
 4SsulfCF3_a1.M062X_6-31pGd_opt
 ------------------------------
 Structure from the checkpoint file:  "4SsulfCF3_a1.M062X_6-31pGd_opt.chk"
 Charge = -1 Multiplicity = 1

 SCF Done:  E(RM062X) =  -1308.57126905     A.U. after    2 cycles
 Optimization completed.
    -- Stationary point found.

 1\1\GINC-R4070\FOpt\RM062X\Gen\C11H12F3N2O1S1(1-)\ROOT\31-Oct-2018\0\\
 # M062X/Gen 6D SCF=Tight INT(grid=ultrafine) OPT IOP(2/17=4) Freq=Nora
 man maxdisk=2147483648 geom=check guess=read IOP(2/17=4)\\4SsulfCF3_a1
 .M062X_6-31pGd_opt\\-1,1\C,-1.6505702564,1.956526671,0.3089751944\C,-0
 .2665176521,1.3368715384,0.4942772916\C,0.813611644,2.106508943,-0.263
 6585883\N,2.1154551901,1.5094468676,-0.0991370767\C,3.275697436,2.3104
 73919,-0.1493275327\O,3.1669458898,3.5290983139,0.0735525255\N,4.36431
 56889,1.5604757707,-0.4345606184\C,5.6082868832,2.0994427276,-0.451833

 Normal termination of Gaussian 09 at Wed Oct 31 13:13:24 2018.

 ----------------------------------------------------------------------
 #N Geom=AllCheck Guess=TCheck SCRF=Check Test GenChk RM062X/ChkBas Fre
 q
 ----------------------------------------------------------------------

 Structure from the checkpoint file:  "4SsulfCF3_a1.M062X_6-31pGd_opt.chk"
 ------------------------------
 4SsulfCF3_a1.M062X_6-31pGd_opt
 ------------------------------
 Charge = -1 Multiplicity = 1

                         Standard orientation:
 ---------------------------------------------------------------------
 Center     Atomic      Atomic             Coordinates (Angstroms)
 Number     Number       Type             X           Y           Z
 ---------------------------------------------------------------------
      1          6           0        7.780539   -0.601162    0.310256
      2          6           0        6.475635   -0.004970    0.835320
      3          6           0        5.345791   -0.104736   -0.187904
      4          7           0        4.120589    0.473142    0.305334
      5          6           0        2.874620   -0.020659   -0.135174
      6          8           0        2.822934   -1.171927   -0.602568
      7          7           0        1.900408    0.897936    0.054669
      8          6           0        0.601977    0.616258   -0.215481
      9          6           0        0.042478   -0.617938   -0.672707
     10          6           0       -0.326396    1.683579   -0.015557
     11          6           0       -1.679657    1.548295   -0.248309
     12          6           0       -2.203326    0.321121   -0.690042
     13          6           0       -1.319006   -0.746331   -0.899640
     14          1           0        8.585755   -0.531685    1.049750
     15          1           0        8.112722   -0.082268   -0.596959
     16          1           0        7.648689   -1.658948    0.054483
     17          1           0        6.633156    1.048733    1.105951
     18          1           0        6.158678   -0.518107    1.750862
     19          1           0        5.126093   -1.153002   -0.411096
     20          1           0        5.674392    0.362744   -1.135604
     21          1           0        4.102224    1.477139    0.434742
     22          1           0        0.705531   -1.454865   -0.844367
     23          1           0        0.081292    2.628985    0.332190
     24          1           0       -2.351132    2.388601   -0.085103
     25         16           0       -3.926237    0.152810   -1.052540
     26          6           0       -4.565190   -0.363888    0.556748
     27          9           0       -4.364556    0.536319    1.533597
     28          9           0       -5.900829   -0.541093    0.455829
     29          9           0       -4.049875   -1.521138    1.000340
     30          1           0       -1.715495   -1.698624   -1.246637
 ---------------------------------------------------------------------

 SCF Done:  E(RM062X) =  -1308.57126905     A.U. after    1 cycles

 The electronic state is 1-A.
 Alpha  occ. eigenvalues --  -89.84112 -25.20998 -25.20370 -25.20346 -19.45302
 Alpha  occ. eigenvalues --  -14.63062 -14.57291 -10.72127 -10.51079 -10.45918
 Alpha  occ. eigenvalues --  -10.45576 -10.45380 -10.45358 -10.44915 -10.43719
 Alpha  occ. eigenvalues --  -10.43535 -10.41425 -10.40649  -8.18535  -6.10644
 Alpha  occ. eigenvalues --   -6.10341  -6.09945  -1.37090  -1.27954  -1.27528
 Alpha  occ. eigenvalues --   -1.00373  -0.88379  -0.86078  -0.82850  -0.78398
 Alpha  occ. eigenvalues --   -0.77272  -0.71546  -0.70673  -0.67339  -0.64650
 Alpha  occ. eigenvalues --   -0.59667  -0.59296  -0.58274  -0.56552  -0.55827
 Alpha  occ. eigenvalues --   -0.52444  -0.50666  -0.47648  -0.47522  -0.46972
 Alpha  occ. eigenvalues --   -0.43832  -0.43524  -0.43323  -0.42396  -0.41439
 Alpha  occ. eigenvalues --   -0.40776  -0.39681  -0.39044  -0.37651  -0.36378
 Alpha  occ. eigenvalues --   -0.35864  -0.35248  -0.34048  -0.33835  -0.32297
 Alpha  occ. eigenvalues --   -0.31190  -0.29831  -0.29332  -0.28570  -0.27394
 Alpha  occ. eigenvalues --   -0.21874  -0.21426  -0.20669  -0.18214  -0.17377
 Alpha  occ. eigenvalues --   -0.15556  -0.10028
 Alpha virt. eigenvalues --    0.10024   0.10699   0.11527   0.12092   0.12386
 Alpha virt. eigenvalues --    0.12794   0.13177   0.13484   0.14033   0.14634
 Alpha virt. eigenvalues --    0.14788   0.15196   0.15865   0.16030   0.16336

 Mulliken charges:
               1
     1  C   -0.739237
     2  C   -0.229049
     3  C   -0.253633
     4  N   -0.518758
     5  C    0.599158
     6  O   -0.657907
     7  N   -0.500745
     8  C   -0.185234
     9  C    0.237519
    10  C   -0.723473
    11  C   -0.181497
    12  C   -0.294380
    13  C   -0.283286
    14  H    0.190351
    15  H    0.199135
    16  H    0.206772
    17  H    0.189083
    18  H    0.217491
    19  H    0.250747
    20  H    0.170575
    21  H    0.391678
    22  H    0.255625
    23  H    0.186110
    24  H    0.189700
    25  S    0.414479
    26  C    0.554506
    27  F   -0.284100
    28  F   -0.312626
    29  F   -0.280186
    30  H    0.191184
 Sum of Mulliken charges =  -1.00000

 Dipole moment (field-independent basis, Debye):
    X=             -0.8819    Y=              1.0074    Z=              0.4104  Tot=              1.4004
 Quadrupole moment (field-independent basis, Debye-Ang):
   XX=           -169.8678   YY=           -120.3223   ZZ=           -122.6293
   XY=              4.0650   XZ=              2.2044   YZ=             -0.4677

  Exact polarizability: 319.404  -2.884 154.920  12.153  10.512 127.586
 Approx polarizability: 299.934  -0.260 208.986  13.139  17.622 164.008

                      1                      2                      3
                      A                      A                      A
 Frequencies --     15.6509                26.4232                33.5349
 Red. masses --      3.8843                 5.7603                 6.6231
 Frc consts  --      0.0006                 0.0024                 0.0044
 IR Inten    --      1.6259                 0.3434                 2.9625

                      4                      5                      6
                      A                      A                      A
 Frequencies --     36.1451                54.1045                59.6197
 Red. masses --      6.8385                 4.9708                 4.2985
 Frc consts  --      0.0053                 0.0086                 0.0090
 IR Inten    --      0.1971                 2.8660                 1.0328

                      7                      8                      9
                      A                      A                      A
 Frequencies --     74.6656                99.0097               131.6579
 Red. masses --      2.5271                 6.7315                 4.1237
 Frc consts  --      0.0083                 0.0389                 0.0421
 IR Inten    --      1.3297                 0.4492                 4.2920

                     10                     11                     12
                      A                      A                      A
 Frequencies --    186.2296               208.6664               226.2255
 Red. masses --      7.5052                 4.8146                 4.1126
 Frc consts  --      0.1534                 0.1235                 0.1240
 IR Inten    --      6.4007                 1.3584                 2.4030

                     13                     14                     15
                      A                      A                      A
 Frequencies --    236.7210               268.4372               300.5270
 Red. masses --      1.1968                 4.2834                 7.8943
 Frc consts  --      0.0395                 0.1819                 0.4201
 IR Inten    --      0.1748                 1.7039                 1.1707

                     16                     17                     18
                      A                      A                      A
 Frequencies --    329.4188               338.5811               356.1892
 Red. masses --      7.2320                 8.2502                 5.9493
 Frc consts  --      0.4624                 0.5572                 0.4447
 IR Inten    --      7.9604                 0.1999                27.5924

                     19                     20                     21
                      A                      A                      A
 Frequencies --    391.5199               432.9729               435.7891
 Red. masses --      6.1844                 6.0179                 3.2789
 Frc consts  --      0.5585                 0.6647                 0.3669
 IR Inten    --     14.1121                 2.9459                 0.4522

                     22                     23                     24
                      A                      A                      A
 Frequencies --    477.2067               518.6851               527.1328
 Red. masses --     16.4609                 3.3428                 3.2856
 Frc consts  --      2.2086                 0.5299                 0.5379
 IR Inten    --      7.9796                16.2381                18.2984

                     25                     26                     27
                      A                      A                      A
 Frequencies --    540.2596               570.5675               607.2393
 Red. masses --     17.8669                 7.8452                 1.6866
 Frc consts  --      3.0726                 1.5048                 0.3664
 IR Inten    --      1.2935                33.2722                93.2524

                     28                     29                     30
                      A                      A                      A
 Frequencies --    638.4430               696.6399               718.4893
 Red. masses --      5.7332                 5.3839                 3.4959
 Frc consts  --      1.3769                 1.5395                 1.0633
 IR Inten    --      6.4117                19.6755                 1.4411

                     31                     32                     33
                      A                      A                      A
 Frequencies --    750.8697               766.7273               780.3091
 Red. masses --      1.1988                17.4598                 2.8612
 Frc consts  --      0.3982                 6.0474                 1.0265
 IR Inten    --      3.5986                 5.7628                16.3919

                     34                     35                     36
                      A                      A                      A
 Frequencies --    801.3601               836.9481               858.9296
 Red. masses --      8.3577                 1.3329                 5.3357
 Frc consts  --      3.1622                 0.5501                 2.3193
 IR Inten    --     20.4796                 3.1148                12.2924

                     37                     38                     39
                      A                      A                      A
 Frequencies --    865.6035               891.0117               920.9802
 Red. masses --      1.8389                 1.2771                 1.6668
 Frc consts  --      0.8118                 0.5974                 0.8330
 IR Inten    --     49.0452                22.0332                 2.0778

                     40                     41                     42
                      A                      A                      A
 Frequencies --    972.2336               995.1547              1003.7048
 Red. masses --      1.2807                 1.3000                 3.6209
 Frc consts  --      0.7132                 0.7585                 2.1492
 IR Inten    --      1.1639                 1.6204               130.1645

                     43                     44                     45
                      A                      A                      A
 Frequencies --   1013.3420              1069.6354              1118.4759
 Red. masses --      4.2395                 2.5993                 2.7793
 Frc consts  --      2.5650                 1.7522                 2.0485
 IR Inten    --     47.6801                13.6343                57.8906

                     46                     47                     48
                      A                      A                      A
 Frequencies --   1134.0840              1143.5839              1157.9469
 Red. masses --      1.2995                 2.1134                 2.0816
 Frc consts  --      0.9847                 1.6284                 1.6445
 IR Inten    --     13.3635                75.3115               267.5850

                     49                     50                     51
                      A                      A                      A
 Frequencies --   1165.0417              1190.7616              1199.3449
 Red. masses --      4.0874                 1.9352                11.2143
 Frc consts  --      3.2687                 1.6167                 9.5041
 IR Inten    --    491.3424                18.4476               214.8585

                     52                     53                     54
                      A                      A                      A
 Frequencies --   1202.2805              1204.6928              1247.5991
 Red. masses --      3.7358                 2.4193                 2.0754
 Frc consts  --      3.1816                 2.0687                 1.9033
 IR Inten    --    122.3944                95.4146               292.4903

                     55                     56                     57
                      A                      A                      A
 Frequencies --   1277.3320              1313.9506              1316.5283
 Red. masses --      1.4994                 1.3914                 1.1935
 Frc consts  --      1.4414                 1.4153                 1.2188
 IR Inten    --    345.2702                 1.5656                51.6024

                     58                     59                     60
                      A                      A                      A
 Frequencies --   1326.0075              1337.5058              1405.1932
 Red. masses --      4.3563                 1.2830                 1.9523
 Frc consts  --      4.5129                 1.3522                 2.2713
 IR Inten    --      9.4199                19.5168               416.2801

                     61                     62                     63
                      A                      A                      A
 Frequencies --   1425.4555              1436.7858              1481.9262
 Red. masses --      1.3014                 2.5094                 4.0884
 Frc consts  --      1.5580                 3.0522                 5.2900
 IR Inten    --     21.7667               397.9746                93.8998

                     64                     65                     66
                      A                      A                      A
 Frequencies --   1503.8094              1511.4033              1522.5909
 Red. masses --      1.8869                 1.0802                 1.0590
 Frc consts  --      2.5141                 1.4538                 1.4465
 IR Inten    --    889.9370                18.1651                24.4696

                     67                     68                     69
                      A                      A                      A
 Frequencies --   1522.8433              1533.0777              1551.0395
 Red. masses --      1.0690                 1.0843                 3.3199
 Frc consts  --      1.4606                 1.5015                 4.7056
 IR Inten    --      0.0933                14.1826               665.4371

                     70                     71                     72
                      A                      A                      A
 Frequencies --   1586.7544              1636.3801              1710.4958
 Red. masses --      6.6195                 6.0580                 7.8224
 Frc consts  --      9.8197                 9.5576                13.4845
 IR Inten    --     84.3909               677.7833               265.9497

                     73                     74                     75
                      A                      A                      A
 Frequencies --   2963.3431              3053.3003              3063.6714
 Red. masses --      1.0736                 1.0665                 1.0356
 Frc consts  --      5.5547                 5.8579                 5.7272
 IR Inten    --    143.9819                38.5391                52.7610

                     76                     77                     78
                      A                      A                      A
 Frequencies --   3103.4520              3131.7372              3135.4462
 Red. masses --      1.0955                 1.0991                 1.1013
 Frc consts  --      6.2165                 6.3513                 6.3793
 IR Inten    --     11.7292                44.4567                55.2050

                     79                     80                     81
                      A                      A                      A
 Frequencies --   3142.6422              3198.1338              3199.6675
 Red. masses --      1.0911                 1.0904                 1.0878
 Frc consts  --      6.3492                 6.5712                 6.5616
 IR Inten    --     31.1789                17.4154                11.9883

                     82                     83                     84
                      A                      A                      A
 Frequencies --   3222.6457              3284.3438              3627.1288
 Red. masses --      1.0940                 1.0915                 1.0759
 Frc consts  --      6.6940                 6.9368                 8.3399
 IR Inten    --     21.7374                 3.6466                10.6609

 - Thermochemistry -
 -------------------
 Temperature   298.150 Kelvin.  Pressure   1.00000 Atm.
 Atom     1 has atomic number  6 and mass  12.00000

 Molecular mass:   277.06224 amu.
 Principal axes and moments of inertia in atomic units:
                           1         2         3
     Eigenvalues --  1284.38740********************
           X            0.99996  -0.00563   0.00625
           Y            0.00494   0.99446   0.10497
           Z           -0.00681  -0.10493   0.99446
 This molecule is an asymmetric top.
 Rotational symmetry number  1.
 Warning -- assumption of classical behavior for rotation
           may cause significant error
 Rotational temperatures (Kelvin)      0.06744     0.00506     0.00501
 Rotational constants (GHZ):           1.40514     0.10545     0.10438
 Zero-point vibrational energy     588275.4 (Joules/Mol)
                                  140.60119 (Kcal/Mol)
 Warning -- explicit consideration of  27 degrees of freedom as
           vibrations may cause significant error
 Vibrational temperatures:     22.52    38.02    48.25    52.00    77.84
          (Kelvin)             85.78   107.43   142.45   189.43   267.94
                              300.22   325.49   340.59   386.22   432.39
                              473.96   487.14   512.48   563.31   622.95
                              627.00   686.59   746.27   758.43   777.31
                              820.92   873.68   918.58  1002.31  1033.74
                             1080.33  1103.15  1122.69  1152.98  1204.18
                             1235.81  1245.41  1281.97  1325.08  1398.83
                             1431.80  1444.11  1457.97  1538.96  1609.24
                             1631.69  1645.36  1666.03  1676.23  1713.24
                             1725.59  1729.81  1733.28  1795.01  1837.79
                             1890.48  1894.19  1907.83  1924.37  2021.76
                             2050.91  2067.21  2132.16  2163.64  2174.57
                             2190.67  2191.03  2205.75  2231.60  2282.98
                             2354.38  2461.02  4263.58  4393.01  4407.93
                             4465.17  4505.87  4511.20  4521.56  4601.40
                             4603.60  4636.66  4725.43  5218.62

 Zero-point correction=                           0.224062 (Hartree/Particle)
 Thermal correction to Energy=                    0.241950
 Thermal correction to Enthalpy=                  0.242894
 Thermal correction to Gibbs Free Energy=         0.173738
 Sum of electronic and zero-point Energies=          -1308.347207
 Sum of electronic and thermal Energies=             -1308.329319
 Sum of electronic and thermal Enthalpies=           -1308.328375
 Sum of electronic and thermal Free Energies=        -1308.397531

                     E (Thermal)             CV                S
                      KCal/Mol        Cal/Mol-Kelvin    Cal/Mol-Kelvin
 Total                  151.826             64.116            145.550
 Electronic               0.000              0.000              0.000
 Translational            0.889              2.981             42.756
 Rotational               0.889              2.981             34.296
 Vibrational            150.048             58.154             68.498
 Vibration     1          0.593              1.986              7.121
 Vibration     2          0.593              1.985              6.081
 Vibration     3          0.594              1.983              5.609
 Vibration     4          0.594              1.982              5.460
 Vibration     5          0.596              1.976              4.661
 Vibration     6          0.597              1.974              4.470
 Vibration     7          0.599              1.966              4.026
 Vibration     8          0.604              1.950              3.474
 Vibration     9          0.612              1.922              2.922
 Vibration    10          0.632              1.859              2.265
 Vibration    11          0.642              1.827              2.055
 Vibration    12          0.650              1.801              1.909
 Vibration    13          0.656              1.785              1.827
 Vibration    14          0.673              1.731              1.606
 Vibration    15          0.693              1.673              1.414
 Vibration    16          0.712              1.617              1.263
 Vibration    17          0.719              1.598              1.219
 Vibration    18          0.732              1.563              1.139
 Vibration    19          0.759              1.488              0.994
 Vibration    20          0.794              1.398              0.849
 Vibration    21          0.796              1.392              0.840
 Vibration    22          0.834              1.301              0.718
 Vibration    23          0.874              1.209              0.613
 Vibration    24          0.882              1.190              0.594
 Vibration    25          0.895              1.161              0.565
 Vibration    26          0.927              1.095              0.503
 Vibration    27          0.966              1.016              0.437

 1\1\GINC-R4070\Freq\RM062X\Gen\C11H12F3N2O1S1(1-)\ROOT\31-Oct-2018\0\\
 #N Geom=AllCheck Guess=TCheck SCRF=Check Test GenChk RM062X/ChkBas Fre
 q\\4SsulfCF3_a1.M062X_6-31pGd_opt\\-1,1\C,-1.6505702564,1.956526671,0.
 3089751944\C,-0.2665176521,1.3368715384,0.4942772916\C,0.813611644,2.1
 06508943,-0.2636585883\N,2.1154551901,1.5094468676,-0.0991370767\C,3.2
 75697436,2.310473919,-0.1493275327\O,3.1669458898,3.5290983139,0.07355
 25255\N,4.3643156889,1.5604757707,-0.4345606184\C,5.6082868832,2.09944
 27276,-0.4518336007\C,5.9926195499,3.444068513,-0.1524936301\C,6.67079

 Normal termination of Gaussian 09 at Wed Oct 31 13:56:55 2018.
