 Gaussian 09, Revision E.01,

 ----------------------------------------------------------------------
 # M062X/Gen 6D SCF=Tight INT(grid=ultrafine) OPT=CalcFC IOP(2/17=4) SC
 RF=(SMD,Solvent=h2o) maxdisk=2147483648
 ----------------------------------------------------------------------

 -----------------------------------
 4SulfCFalt1.M062X_6-31pGd_opt_water
 -----------------------------------
 Symbolic Z-matrix:
 Charge =  0 Multiplicity = 1

 SCF Done:  E(RM062X) =  -1309.11292404     A.U. after   14 cycles
 SCF Done:  E(RM062X) =  -1309.12958017     A.U. after   14 cycles
 SCF Done:  E(RM062X) =  -1309.13106712     A.U. after   14 cycles
 SCF Done:  E(RM062X) =  -1309.13075105     A.U. after   14 cycles
 SCF Done:  E(RM062X) =  -1309.13118588     A.U. after   12 cycles
 SCF Done:  E(RM062X) =  -1309.05004809     A.U. after   14 cycles
 SCF Done:  E(RM062X) =  -1309.13121075     A.U. after    8 cycles
 SCF Done:  E(RM062X) =  -1309.13127561     A.U. after   12 cycles
 SCF Done:  E(RM062X) =  -1309.11821227     A.U. after   15 cycles
 SCF Done:  E(RM062X) =  -1309.13128555     A.U. after   12 cycles
 SCF Done:  E(RM062X) =  -1309.13136355     A.U. after   10 cycles
 SCF Done:  E(RM062X) =  -1309.13136181     A.U. after   10 cycles
 SCF Done:  E(RM062X) =  -1309.13135794     A.U. after   10 cycles
 SCF Done:  E(RM062X) =  -1309.13135797     A.U. after    9 cycles
 SCF Done:  E(RM062X) =  -1309.13135487     A.U. after   10 cycles
 SCF Done:  E(RM062X) =  -1309.13135428     A.U. after    9 cycles
 SCF Done:  E(RM062X) =  -1309.13135353     A.U. after    9 cycles
 SCF Done:  E(RM062X) =  -1309.13135304     A.U. after    8 cycles
 SCF Done:  E(RM062X) =  -1309.13135257     A.U. after    8 cycles
 Optimization completed on the basis of negligible forces.
    -- Stationary point found.
 Normal termination of Gaussian 09 at Mon Jul 15 20:58:16 2019.
 Gaussian 09:  ES64L-G09RevE.01 30-Nov-2015

 ----------------------------------------------------------------------
 # M062X/Gen 6D SCF=Tight INT(grid=ultrafine) SCRF=(SMD,Solvent=h2o) Fr
 eq=Noraman maxdisk=2147483648 geom=check guess=read IOP(2/17=4)
 ----------------------------------------------------------------------

 -----------------------------------
 4SulfCFalt1.M062X_6-31pGd_opt_water
 -----------------------------------
 Structure from the checkpoint file:  "4SulfCFalt1.M062X_6-31pGd_opt_water.chk"
 Charge =  0 Multiplicity = 1

                         Standard orientation:
 ---------------------------------------------------------------------
 Center     Atomic      Atomic             Coordinates (Angstroms)
 Number     Number       Type             X           Y           Z
 ---------------------------------------------------------------------
      1          6           0        7.789678   -0.482878    0.478065
      2          6           0        6.524110    0.367428    0.518543
      3          6           0        5.305563   -0.444518    0.106638
      4          7           0        4.104549    0.379415    0.165840
      5          6           0        2.900651   -0.115951   -0.192150
      6          8           0        2.764916   -1.265487   -0.637684
      7          7           0        1.847560    0.762504   -0.032780
      8          6           0        0.492003    0.551745   -0.291872
      9          6           0       -0.051871   -0.664200   -0.734301
     10          6           0       -0.362982    1.648831   -0.082214
     11          6           0       -1.726497    1.538647   -0.303331
     12          6           0       -2.266104    0.322893   -0.735796
     13          6           0       -1.422774   -0.766746   -0.953741
     14          1           0        8.665928    0.103928    0.768936
     15          1           0        7.965441   -0.875068   -0.529703
     16          1           0        7.711289   -1.334539    1.162704
     17          1           0        6.628009    1.228235   -0.153034
     18          1           0        6.370160    0.762200    1.530503
     19          1           0        5.190774   -1.313444    0.766555
     20          1           0        5.431554   -0.821093   -0.914440
     21          1           0        4.169001    1.298356    0.590274
     22          1           0        2.079428    1.688896    0.312438
     23          1           0        0.582278   -1.521568   -0.905396
     24          1           0        0.053366    2.594130    0.255838
     25          1           0       -2.370787    2.396956   -0.136882
     26         16           0       -4.015771    0.176189   -1.040533
     27          6           0       -4.517068   -0.335966    0.616752
     28          9           0       -4.235694    0.576040    1.560603
     29          9           0       -5.843645   -0.529577    0.625750
     30          9           0       -3.938679   -1.479682    1.014332
     31          1           0       -1.834301   -1.712287   -1.294943
 ---------------------------------------------------------------------

 SCF Done:  E(RM062X) =  -1309.13135257     A.U. after    1 cycles

 The electronic state is 1-A.
 Alpha  occ. eigenvalues --  -89.95801 -25.31878 -25.31471 -25.31462 -19.62474
 Alpha  occ. eigenvalues --  -14.80631 -14.78804 -10.83626 -10.69551 -10.61877
 Alpha  occ. eigenvalues --  -10.59323 -10.57716 -10.57154 -10.57085 -10.56295
 Alpha  occ. eigenvalues --  -10.55904 -10.54197 -10.52966  -8.30275  -6.22363
 Alpha  occ. eigenvalues --   -6.22100  -6.21651  -1.48306  -1.39141  -1.38685
 Alpha  occ. eigenvalues --   -1.18490  -1.06618  -1.03299  -0.97644  -0.91485
 Alpha  occ. eigenvalues --   -0.88130  -0.85927  -0.84443  -0.79534  -0.77060
 Alpha  occ. eigenvalues --   -0.72441  -0.71129  -0.70508  -0.70213  -0.68538
 Alpha  occ. eigenvalues --   -0.67000  -0.64853  -0.63346  -0.61581  -0.58708
 Alpha  occ. eigenvalues --   -0.58451  -0.55932  -0.55487  -0.54618  -0.54436
 Alpha  occ. eigenvalues --   -0.53319  -0.53315  -0.52468  -0.52342  -0.51047
 Alpha  occ. eigenvalues --   -0.50501  -0.49395  -0.47635  -0.46670  -0.45961
 Alpha  occ. eigenvalues --   -0.44346  -0.42184  -0.42015  -0.41727  -0.39923
 Alpha  occ. eigenvalues --   -0.39346  -0.38305  -0.35909  -0.33061  -0.32915
 Alpha  occ. eigenvalues --   -0.32128  -0.27776
 Alpha virt. eigenvalues --   -0.00572   0.00914   0.01252   0.02014   0.02813
 Alpha virt. eigenvalues --    0.03517   0.03732   0.04150   0.04527   0.04656
 Alpha virt. eigenvalues --    0.04931   0.05770   0.06083   0.06996   0.07115

 Mulliken charges:
               1
     1  C   -0.747539
     2  C   -0.376810
     3  C   -0.167113
     4  N   -0.680385
     5  C    0.977425
     6  O   -0.761110
     7  N   -0.650264
     8  C   -0.125985
     9  C    0.858533
    10  C   -1.215706
    11  C   -0.216215
    12  C   -0.109645
    13  C   -0.634878
    14  H    0.223728
    15  H    0.222076
    16  H    0.222715
    17  H    0.234859
    18  H    0.233756
    19  H    0.235780
    20  H    0.239257
    21  H    0.483466
    22  H    0.497308
    23  H    0.278698
    24  H    0.262650
    25  H    0.268313
    26  S    0.470171
    27  C    0.569710
    28  F   -0.281959
    29  F   -0.295018
    30  F   -0.281123
    31  H    0.265304
 Sum of Mulliken charges =  -0.00000

 Dipole moment (field-independent basis, Debye):
    X=              6.8508    Y=              6.6085    Z=              1.8000  Tot=              9.6874
 Quadrupole moment (field-independent basis, Debye-Ang):
   XX=           -102.8933   YY=           -106.1201   ZZ=           -116.4494
   XY=             14.2052   XZ=             12.4003   YZ=              2.3418

  Exact polarizability: 317.204  -0.771 224.031  12.103  18.789 168.927
 Approx polarizability: 247.030   1.054 199.945  10.188  17.064 151.852

                      1                      2                      3
                      A                      A                      A
 Frequencies --      3.6801                17.2184                35.6935
 Red. masses --      4.4069                 6.2142                 5.4199
 Frc consts  --      0.0000                 0.0011                 0.0041
 IR Inten    --      6.4445                18.3836                 8.1861

                      4                      5                      6
                      A                      A                      A
 Frequencies --     36.1443                41.6006                51.9421
 Red. masses --      4.1264                 5.2388                 2.4983
 Frc consts  --      0.0032                 0.0053                 0.0040
 IR Inten    --      3.9659                 0.7736                20.3484

                      7                      8                      9
                      A                      A                      A
 Frequencies --     65.9411                69.9789               140.1804
 Red. masses --      6.0685                 6.1784                 2.7604
 Frc consts  --      0.0155                 0.0178                 0.0320
 IR Inten    --      0.5815                 0.9508                20.3911

                     10                     11                     12
                      A                      A                      A
 Frequencies --    151.6059               166.9129               218.1924
 Red. masses --      6.7833                 5.7463                 6.8598
 Frc consts  --      0.0919                 0.0943                 0.1924
 IR Inten    --      1.7456                 8.9196                 0.2804

                     13                     14                     15
                      A                      A                      A
 Frequencies --    247.1839               257.3729               301.8765
 Red. masses --      1.1082                 5.6200                 8.2648
 Frc consts  --      0.0399                 0.2193                 0.4438
 IR Inten    --      0.4726                 4.3640                 0.0171

                     16                     17                     18
                      A                      A                      A
 Frequencies --    322.6401               331.9105               340.8933
 Red. masses --      1.1398                 7.2518                 6.2200
 Frc consts  --      0.0699                 0.4707                 0.4259
 IR Inten    --     73.4911                 6.0996                 1.3469

                     19                     20                     21
                      A                      A                      A
 Frequencies --    352.1044               384.9273               422.0926
 Red. masses --      6.0799                 6.0589                 2.9958
 Frc consts  --      0.4441                 0.5289                 0.3145
 IR Inten    --     31.6596                 3.7879                 0.3492

                     22                     23                     24
                      A                      A                      A
 Frequencies --    428.9517               477.8881               514.2313
 Red. masses --      6.3335                12.7145                 1.2819
 Frc consts  --      0.6866                 1.7108                 0.1997
 IR Inten    --      3.6042                 1.5390               277.2683

                     25                     26                     27
                      A                      A                      A
 Frequencies --    517.4966               528.3054               539.4748
 Red. masses --      4.0061                 3.1891                17.9343
 Frc consts  --      0.6321                 0.5244                 3.0752
 IR Inten    --     21.1004                13.7518                 3.3800

                     28                     29                     30
                      A                      A                      A
 Frequencies --    573.8025               639.2417               701.5218
 Red. masses --      8.0734                 7.1070                 6.5933
 Frc consts  --      1.5661                 1.7111                 1.9118
 IR Inten    --     23.9755                 0.5116                 5.6375

                     31                     32                     33
                      A                      A                      A
 Frequencies --    729.3075               758.0433               768.4824
 Red. masses --      3.8790                 1.8258                 1.9845
 Frc consts  --      1.2156                 0.6181                 0.6905
 IR Inten    --      4.1597                25.9352                 2.1177

                     34                     35                     36
                      A                      A                      A
 Frequencies --    771.0859               783.3597               847.3049
 Red. masses --     17.0397                 7.0492                 1.2626
 Frc consts  --      5.9692                 2.5487                 0.5341
 IR Inten    --     20.0883                 5.7240                 2.8965

                     37                     38                     39
                      A                      A                      A
 Frequencies --    856.5213               870.4627               907.8367
 Red. masses --      1.6591                 5.3350                 1.1517
 Frc consts  --      0.7171                 2.3817                 0.5592
 IR Inten    --    112.6390                 4.0574                 2.9196

                     40                     41                     42
                      A                      A                      A
 Frequencies --    933.8215               985.4678              1002.8809
 Red. masses --      1.6646                 1.3193                 1.3529
 Frc consts  --      0.8552                 0.7549                 0.8017
 IR Inten    --      4.7932                 1.2939                 0.1981

                     43                     44                     45
                      A                      A                      A
 Frequencies --   1022.6594              1050.8176              1084.1760
 Red. masses --      3.7568                 4.2566                 2.5694
 Frc consts  --      2.3149                 2.7693                 1.7794
 IR Inten    --      7.2764                 8.6640                 3.0404

                     46                     47                     48
                      A                      A                      A
 Frequencies --   1122.1334              1140.2495              1148.0916
 Red. masses --      3.2728                 1.7464                 5.4589
 Frc consts  --      2.4280                 1.3378                 4.2394
 IR Inten    --    182.8005                26.0895               521.6019

                     49                     50                     51
                      A                      A                      A
 Frequencies --   1159.2104              1165.1014              1173.5725
 Red. masses --      1.8949                11.4049                 3.1640
 Frc consts  --      1.5002                 9.1215                 2.5675
 IR Inten    --     49.9394               392.9394                 2.4315

                     52                     53                     54
                      A                      A                      A
 Frequencies --   1182.1520              1193.9864              1209.3594
 Red. masses --      1.6497                12.2487                 1.1714
 Frc consts  --      1.3584                10.2882                 1.0094
 IR Inten    --      1.7729               413.9034                42.1464

                     55                     56                     57
                      A                      A                      A
 Frequencies --   1261.2658              1281.2096              1300.7212
 Red. masses --      1.6045                 1.2051                 2.8228
 Frc consts  --      1.5038                 1.1655                 2.8139
 IR Inten    --    482.7468                20.0401                11.8166

                     58                     59                     60
                      A                      A                      A
 Frequencies --   1327.4486              1328.5557              1346.7115
 Red. masses --      1.3649                 1.0909                 1.6008
 Frc consts  --      1.4171                 1.1345                 1.7105
 IR Inten    --      0.0857                 1.8934                 3.5856

                     61                     62                     63
                      A                      A                      A
 Frequencies --   1362.1472              1420.5032              1429.2289
 Red. masses --      3.3180                 1.2926                 1.6355
 Frc consts  --      3.6272                 1.5367                 1.9683
 IR Inten    --    344.4300                 5.3637                 4.9455

                     64                     65                     66
                      A                      A                      A
 Frequencies --   1446.3513              1491.3443              1504.8744
 Red. masses --      3.0180                 1.0577                 1.0400
 Frc consts  --      3.7198                 1.3860                 1.3876
 IR Inten    --     87.4921                18.4289                12.1417

                     67                     68                     69
                      A                      A                      A
 Frequencies --   1512.1383              1530.9302              1540.2128
 Red. masses --      1.0914                 1.1076                 1.9830
 Frc consts  --      1.4703                 1.5295                 2.7717
 IR Inten    --     36.2516               125.6772               834.4207

                     70                     71                     72
                      A                      A                      A
 Frequencies --   1552.4844              1576.3894              1656.1076
 Red. masses --      2.6441                 2.5765                 6.1190
 Frc consts  --      3.7548                 3.7723                 9.8879
 IR Inten    --     24.6366              1260.2989               211.6043

                     73                     74                     75
                      A                      A                      A
 Frequencies --   1674.8521              1703.3481              3072.4769
 Red. masses --      4.4213                 4.4218                 1.0605
 Frc consts  --      7.3072                 7.5589                 5.8987
 IR Inten    --      0.3823               801.1289                 4.0035

                     76                     77                     78
                      A                      A                      A
 Frequencies --   3077.3496              3079.0483              3107.3924
 Red. masses --      1.0420                 1.0548                 1.1018
 Frc consts  --      5.8141                 5.8921                 6.2681
 IR Inten    --     10.5773               125.9389                 2.4782

                     79                     80                     81
                      A                      A                      A
 Frequencies --   3127.1254              3147.6571              3157.9201
 Red. masses --      1.1060                 1.1040                 1.1022
 Frc consts  --      6.3722                 6.4445                 6.4762
 IR Inten    --     51.9371                94.0407                47.0688

                     82                     83                     84
                      A                      A                      A
 Frequencies --   3227.5271              3237.8523              3243.6785
 Red. masses --      1.0901                 1.0927                 1.0958
 Frc consts  --      6.6905                 6.7497                 6.7932
 IR Inten    --      5.2148                 1.2941                 1.0852

                     85                     86                     87
                      A                      A                      A
 Frequencies --   3305.6580              3600.4995              3619.5748
 Red. masses --      1.0926                 1.0789                 1.0795
 Frc consts  --      7.0341                 8.2402                 8.3325
 IR Inten    --      7.4733                69.8219               216.1739

 - Thermochemistry -
 -------------------
 Temperature   298.150 Kelvin.  Pressure   1.00000 Atm.
 Atom     1 has atomic number  6 and mass  12.00000

 Molecular mass:   278.07007 amu.
 Principal axes and moments of inertia in atomic units:
                           1         2         3
     Eigenvalues --  1309.75703********************
           X            0.99996  -0.00434   0.00811
           Y            0.00331   0.99244   0.12265
           Z           -0.00858  -0.12262   0.99242
 This molecule is an asymmetric top.
 Rotational symmetry number  1.
 Warning -- assumption of classical behavior for rotation
           may cause significant error
 Rotational temperatures (Kelvin)      0.06613     0.00508     0.00503
 Rotational constants (GHZ):           1.37792     0.10588     0.10485
 Zero-point vibrational energy     622044.2 (Joules/Mol)
                                  148.67214 (Kcal/Mol)
 Warning -- explicit consideration of  28 degrees of freedom as
           vibrations may cause significant error
 Vibrational temperatures:      5.29    24.77    51.35    52.00    59.85
          (Kelvin)             74.73    94.87   100.68   201.69   218.13
                              240.15   313.93   355.64   370.30   434.33
                              464.21   477.54   490.47   506.60   553.82
                              607.30   617.17   687.57   739.86   744.56
                              760.11   776.18   825.57   919.73  1009.33
                             1049.31  1090.65  1105.67  1109.42  1127.08
                             1219.08  1232.34  1252.40  1306.17  1343.56
                             1417.87  1442.92  1471.38  1511.89  1559.89
                             1614.50  1640.56  1651.85  1667.84  1676.32
                             1688.51  1700.85  1717.88  1740.00  1814.68
                             1843.37  1871.45  1909.90  1911.49  1937.62
                             1959.82  2043.78  2056.34  2080.97  2145.71
                             2165.18  2175.63  2202.66  2216.02  2233.68
                             2268.07  2382.77  2409.74  2450.73  4420.60
                             4427.61  4430.06  4470.84  4499.23  4528.77
                             4543.54  4643.69  4658.54  4666.92  4756.10
                             5180.31  5207.75

 Zero-point correction=                           0.236924 (Hartree/Particle)
 Thermal correction to Energy=                    0.255544
 Thermal correction to Enthalpy=                  0.256489
 Thermal correction to Gibbs Free Energy=         0.183729
 Sum of electronic and zero-point Energies=          -1308.894428
 Sum of electronic and thermal Energies=             -1308.875808
 Sum of electronic and thermal Enthalpies=           -1308.874864
 Sum of electronic and thermal Free Energies=        -1308.947623

                     E (Thermal)             CV                S
                      KCal/Mol        Cal/Mol-Kelvin    Cal/Mol-Kelvin
 Total                  160.357             66.047            153.135
 Electronic               0.000              0.000              0.000
 Translational            0.889              2.981             42.767
 Rotational               0.889              2.981             34.307
 Vibrational            158.579             60.085             76.061
 Vibration     1          0.593              1.987              9.997
 Vibration     2          0.593              1.986              6.932
 Vibration     3          0.594              1.982              5.485
 Vibration     4          0.594              1.982              5.460
 Vibration     5          0.594              1.981              5.181
 Vibration     6          0.596              1.977              4.742
 Vibration     7          0.597              1.971              4.271
 Vibration     8          0.598              1.968              4.154
 Vibration     9          0.615              1.913              2.801
 Vibration    10          0.619              1.901              2.652
 Vibration    11          0.624              1.883              2.470
 Vibration    12          0.646              1.813              1.974
 Vibration    13          0.661              1.767              1.751
 Vibration    14          0.667              1.750              1.680
 Vibration    15          0.694              1.670              1.406
 Vibration    16          0.708              1.630              1.297
 Vibration    17          0.714              1.612              1.251
 Vibration    18          0.720              1.594              1.208
 Vibration    19          0.729              1.571              1.157
 Vibration    20          0.754              1.502              1.020
 Vibration    21          0.784              1.422              0.885
 Vibration    22          0.790              1.407              0.862
 Vibration    23          0.834              1.299              0.716
 Vibration    24          0.869              1.218              0.623
 Vibration    25          0.873              1.211              0.616
 Vibration    26          0.883              1.187              0.591
 Vibration    27          0.895              1.163              0.566
 Vibration    28          0.930              1.088              0.497

 Optimization completed on the basis of negligible forces.
    -- Stationary point found.
 Normal termination of Gaussian 09 at Mon Jul 15 21:46:53 2019.
