 Gaussian 09, Revision E.01,

 ----------------------------------------------------------------------
 # M062X/Gen 6D SCF=Tight INT(grid=ultrafine) OPT IOP(2/17=4) maxdisk=2
 684354560
 ----------------------------------------------------------------------

 --------------------------------
 4SulfOxyCf3_a1.M062X_6-31pGd_opt
 --------------------------------
 Symbolic Z-matrix:
 Charge = -1 Multiplicity = 1

 SCF Done:  E(RM062X) =  -1458.90502521     A.U. after   17 cycles
 SCF Done:  E(RM062X) =  -1458.90744394     A.U. after   16 cycles
 SCF Done:  E(RM062X) =  -1458.90759444     A.U. after   15 cycles
 SCF Done:  E(RM062X) =  -1458.90836715     A.U. after   15 cycles
 SCF Done:  E(RM062X) =  -1458.90847323     A.U. after   14 cycles
 SCF Done:  E(RM062X) =  -1458.90850263     A.U. after   15 cycles
 SCF Done:  E(RM062X) =  -1458.90864769     A.U. after   14 cycles
 SCF Done:  E(RM062X) =  -1458.90870754     A.U. after   12 cycles
 SCF Done:  E(RM062X) =  -1458.90876982     A.U. after   14 cycles
 SCF Done:  E(RM062X) =  -1458.90882923     A.U. after   13 cycles
 SCF Done:  E(RM062X) =  -1458.91033451     A.U. after   13 cycles
 SCF Done:  E(RM062X) =  -1458.91044279     A.U. after   14 cycles
 SCF Done:  E(RM062X) =  -1458.91043051     A.U. after   14 cycles
 SCF Done:  E(RM062X) =  -1458.91046195     A.U. after   13 cycles
 SCF Done:  E(RM062X) =  -1458.91047161     A.U. after   13 cycles
 SCF Done:  E(RM062X) =  -1458.91047199     A.U. after   11 cycles
 SCF Done:  E(RM062X) =  -1458.91047212     A.U. after    9 cycles
 SCF Done:  E(RM062X) =  -1458.91047214     A.U. after   11 cycles
 Optimization completed.
    -- Stationary point found.

 1\1\GINC-R4385\FOpt\RM062X\Gen\C11H12F3N2O3S1(1-)\ROOT\31-Oct-2018\0\\
 # M062X/Gen 6D SCF=Tight INT(grid=ultrafine) OPT IOP(2/17=4) maxdisk=2
 684354560\\4SulfOxyCf3_a1.M062X_6-31pGd_opt\\-1,1\C,-1.4110125272,2.01
 65556207,0.8115790793\C,0.0005665159,1.5316972596,0.4877601381\C,0.413
 2576069,1.8893584764,-0.943339119\N,1.7558169893,1.4890985161,-1.29042
 05233\C,2.8454060866,2.1739891446,-0.7433508617\O,2.6540037478,3.29258
 60614,-0.240968523\N,3.9924732342,1.4507603009,-0.8771270373\C,5.17895
 67636,1.9323987351,-0.4737262769\C,5.4640092876,3.2173071507,0.1065403

 Normal termination of Gaussian 09 at Wed Oct 31 15:45:29 2018.
 Gaussian 09:  ES64L-G09RevE.01 30-Nov-2015

 ----------------------------------------------------------------------
 # M062X/Gen 6D SCF=Tight INT(grid=ultrafine) OPT IOP(2/17=4) Freq=Nora
 man maxdisk=2684354560 geom=check guess=read IOP(2/17=4)
 ----------------------------------------------------------------------

 --------------------------------
 4SulfOxyCf3_a1.M062X_6-31pGd_opt
 --------------------------------
 Structure from the checkpoint file:  "4SulfOxyCf3_a1.M062X_6-31pGd_opt.chk"
 Charge = -1 Multiplicity = 1

 SCF Done:  E(RM062X) =  -1458.91047214     A.U. after    1 cycles
 Optimization completed.
    -- Stationary point found.

 1\1\GINC-R4385\FOpt\RM062X\Gen\C11H12F3N2O3S1(1-)\ROOT\31-Oct-2018\0\\
 # M062X/Gen 6D SCF=Tight INT(grid=ultrafine) OPT IOP(2/17=4) Freq=Nora
 man maxdisk=2684354560 geom=check guess=read IOP(2/17=4)\\4SulfOxyCf3_
 a1.M062X_6-31pGd_opt\\-1,1\C,-1.4110125272,2.0165556207,0.8115790793\C
 ,0.0005665159,1.5316972596,0.4877601381\C,0.4132576069,1.8893584764,-0
 .943339119\N,1.7558169893,1.4890985161,-1.2904205233\C,2.8454060866,2.
 1739891446,-0.7433508617\O,2.6540037478,3.2925860614,-0.240968523\N,3.
 9924732342,1.4507603009,-0.8771270373\C,5.1789567636,1.9323987351,-0.4

 Normal termination of Gaussian 09 at Wed Oct 31 15:46:37 2018.

 ----------------------------------------------------------------------
 #N Geom=AllCheck Guess=TCheck SCRF=Check Test GenChk RM062X/ChkBas Fre
 q
 ----------------------------------------------------------------------

 Structure from the checkpoint file:  "4SulfOxyCf3_a1.M062X_6-31pGd_opt.chk"
 --------------------------------
 4SulfOxyCf3_a1.M062X_6-31pGd_opt
 --------------------------------
 Charge = -1 Multiplicity = 1

                         Standard orientation:
 ---------------------------------------------------------------------
 Center     Atomic      Atomic             Coordinates (Angstroms)
 Number     Number       Type             X           Y           Z
 ---------------------------------------------------------------------
      1          6           0        7.559470   -1.096624    0.461889
      2          6           0        6.255140   -0.318044    0.620123
      3          6           0        5.787165    0.288259   -0.706405
      4          7           0        4.535954    1.002813   -0.622609
      5          6           0        3.342663    0.292069   -0.459934
      6          8           0        3.334396   -0.923022   -0.712453
      7          7           0        2.340430    1.112868   -0.037394
      8          6           0        1.087529    0.662306    0.134892
      9          6           0        0.580955   -0.663047   -0.101276
     10          6           0        0.135745    1.627025    0.612464
     11          6           0       -1.183130    1.321605    0.836172
     12          6           0       -1.638133    0.008225    0.596991
     13          6           0       -0.744320   -0.969295    0.122004
     14          1           0        7.894432   -1.525533    1.412304
     15          1           0        8.362710   -0.450988    0.084535
     16          1           0        7.433364   -1.919892   -0.250707
     17          1           0        6.380943    0.485147    1.359023
     18          1           0        5.459265   -0.975368    0.987250
     19          1           0        5.656459   -0.514794   -1.439366
     20          1           0        6.553225    0.973138   -1.095513
     21          1           0        4.528842    1.908755   -0.173044
     22          1           0        1.264494   -1.422320   -0.454320
     23          1           0        0.510101    2.629403    0.798081
     24          1           0       -1.878887    2.070424    1.204925
     25         16           0       -3.300088   -0.373063    0.808747
     26          8           0       -3.959815    0.583528    1.695613
     27          8           0       -3.510342   -1.811698    0.953777
     28          1           0       -1.110666   -1.977287   -0.055834
     29          6           0       -4.087160   -0.008430   -0.840440
     30          9           0       -5.397164   -0.266014   -0.786885
     31          9           0       -3.926715    1.274744   -1.171817
     32          9           0       -3.551347   -0.761643   -1.802594
 ---------------------------------------------------------------------

 SCF Done:  E(RM062X) =  -1458.91047214     A.U. after    1 cycles

 The electronic state is 1-A.
 Alpha  occ. eigenvalues --  -90.04975 -25.22303 -25.22276 -25.22249 -19.54662
 Alpha  occ. eigenvalues --  -19.54652 -19.47200 -14.64819 -14.59401 -10.72561
 Alpha  occ. eigenvalues --  -10.52999 -10.47519 -10.47289 -10.46281 -10.45738
 Alpha  occ. eigenvalues --  -10.45724 -10.45622 -10.44831 -10.43086 -10.42363
 Alpha  occ. eigenvalues --   -8.36314  -6.28481  -6.28465  -6.28340  -1.38966
 Alpha  occ. eigenvalues --   -1.29678  -1.29664  -1.13557  -1.02977  -1.02444
 Alpha  occ. eigenvalues --   -0.90078  -0.88020  -0.83850  -0.78343  -0.76590
 Alpha  occ. eigenvalues --   -0.73540  -0.72779  -0.68057  -0.65324  -0.61497
 Alpha  occ. eigenvalues --   -0.61117  -0.60562  -0.58360  -0.58026  -0.54398
 Alpha  occ. eigenvalues --   -0.52528  -0.49981  -0.49181  -0.48892  -0.47664
 Alpha  occ. eigenvalues --   -0.45446  -0.44991  -0.44617  -0.44202  -0.43710
 Alpha  occ. eigenvalues --   -0.43068  -0.42725  -0.40879  -0.40121  -0.39370
 Alpha  occ. eigenvalues --   -0.38378  -0.37823  -0.36634  -0.35268  -0.34555
 Alpha  occ. eigenvalues --   -0.33807  -0.32457  -0.31515  -0.30755  -0.30541
 Alpha  occ. eigenvalues --   -0.29951  -0.28925  -0.28415  -0.26343  -0.24198
 Alpha  occ. eigenvalues --   -0.22778  -0.20161  -0.18945  -0.17309  -0.12062
 Alpha virt. eigenvalues --    0.09859   0.09969   0.11007   0.11556   0.11620
 Alpha virt. eigenvalues --    0.12392   0.13016   0.13331   0.13560   0.13888
 Alpha virt. eigenvalues --    0.14329   0.15100   0.15367   0.15653   0.16272

 Mulliken charges:
               1
     1  C   -0.763208
     2  C   -0.204482
     3  C   -0.241865
     4  N   -0.542028
     5  C    0.495815
     6  O   -0.621753
     7  N   -0.455175
     8  C    0.031867
     9  C    0.091199
    10  C   -1.113691
    11  C   -0.004594
    12  C   -0.578264
    13  C    0.095755
    14  H    0.195391
    15  H    0.191529
    16  H    0.209991
    17  H    0.189963
    18  H    0.243209
    19  H    0.238281
    20  H    0.178119
    21  H    0.399102
    22  H    0.261096
    23  H    0.194921
    24  H    0.225444
    25  S    1.019229
    26  O   -0.500735
    27  O   -0.479805
    28  H    0.227175
    29  C    0.862339
    30  F   -0.296885
    31  F   -0.276564
    32  F   -0.271376
 Sum of Mulliken charges =  -1.00000

 Dipole moment (field-independent basis, Debye):
    X=              1.3441    Y=              1.4045    Z=             -0.8364  Tot=              2.1163
 Quadrupole moment (field-independent basis, Debye-Ang):
   XX=           -188.1081   YY=           -134.5307   ZZ=           -136.7450
   XY=             -0.3149   XZ=             14.4922   YZ=              1.5678

  Exact polarizability: 328.759  10.063 163.983 -22.805   6.875 132.137
 Approx polarizability: 314.656  16.366 226.225 -30.239  13.924 168.176

                      1                      2                      3
                      A                      A                      A
 Frequencies --     21.3031                22.0312                41.9179
 Red. masses --      4.7015                 6.3091                 7.7354
 Frc consts  --      0.0013                 0.0018                 0.0080
 IR Inten    --      1.8880                 1.7525                 1.1489

                      4                      5                      6
                      A                      A                      A
 Frequencies --     44.0234                58.3411                64.9150
 Red. masses --     12.3086                 4.8979                 4.3619
 Frc consts  --      0.0141                 0.0098                 0.0108
 IR Inten    --      0.5746                 0.2360                 3.6223

                      7                      8                      9
                      A                      A                      A
 Frequencies --     94.3936                97.7665               113.1439
 Red. masses --      5.7883                 1.9011                 5.5475
 Frc consts  --      0.0304                 0.0107                 0.0418
 IR Inten    --      1.7157                 0.7157                 0.5980

                     10                     11                     12
                      A                      A                      A
 Frequencies --    174.0247               184.6142               204.0960
 Red. masses --      8.4623                 6.7541                11.8442
 Frc consts  --      0.1510                 0.1356                 0.2907
 IR Inten    --      7.8914                 7.8483                 0.0598

                     13                     14                     15
                      A                      A                      A
 Frequencies --    214.7206               238.3414               252.2158
 Red. masses --      6.8384                 1.1588                 7.1981
 Frc consts  --      0.1858                 0.0388                 0.2698
 IR Inten    --      3.9276                 0.9730                 3.3839

                     16                     17                     18
                      A                      A                      A
 Frequencies --    294.7171               301.5391               303.6385
 Red. masses --      3.4945                 4.3496                10.3451
 Frc consts  --      0.1788                 0.2330                 0.5620
 IR Inten    --      8.3696                 4.9119                 1.7334

                     19                     20                     21
                      A                      A                      A
 Frequencies --    333.2254               336.2566               374.8718
 Red. masses --      7.9150                 6.9976                 6.5490
 Frc consts  --      0.5178                 0.4662                 0.5422
 IR Inten    --      7.3196                16.6404                 0.4906

                     22                     23                     24
                      A                      A                      A
 Frequencies --    395.5877               433.8292               451.9747
 Red. masses --      7.9901                 3.2391                 7.8974
 Frc consts  --      0.7367                 0.3592                 0.9505
 IR Inten    --     33.6155                 0.0344                 3.1992

                     25                     26                     27
                      A                      A                      A
 Frequencies --    496.6069               506.9285               530.9709
 Red. masses --      5.6409                 3.3558                 4.0721
 Frc consts  --      0.8196                 0.5081                 0.6764
 IR Inten    --     13.7950                 1.9175                85.4981

                     28                     29                     30
                      A                      A                      A
 Frequencies --    542.6106               558.0800               574.7393
 Red. masses --      1.6558                16.7193                 9.8927
 Frc consts  --      0.2872                 3.0680                 1.9253
 IR Inten    --    101.2144                 0.6047                56.7297

                     31                     32                     33
                      A                      A                      A
 Frequencies --    608.5983               629.9799               710.1618
 Red. masses --      8.1657                 6.6280                 2.6320
 Frc consts  --      1.7820                 1.5498                 0.7821
 IR Inten    --    329.0090                 2.5570                71.0711

                     34                     35                     36
                      A                      A                      A
 Frequencies --    716.3629               730.1544               774.7133
 Red. masses --      2.6123                 2.6658                 4.4053
 Frc consts  --      0.7898                 0.8374                 1.5578
 IR Inten    --      4.7430                69.0121                42.4824

                     37                     38                     39
                      A                      A                      A
 Frequencies --    778.6589               805.9984               834.4872
 Red. masses --      2.5766                 6.1436                 1.3665
 Frc consts  --      0.9204                 2.3515                 0.5606
 IR Inten    --     15.5437                14.8577                 1.5576

                     40                     41                     42
                      A                      A                      A
 Frequencies --    857.2476               868.0643               891.0251
 Red. masses --      5.2634                 1.8893                 1.5431
 Frc consts  --      2.2789                 0.8388                 0.7218
 IR Inten    --      4.5873                52.8079                 9.8256

                     43                     44                     45
                      A                      A                      A
 Frequencies --    904.2156               986.0011              1000.6152
 Red. masses --      1.6743                 1.2650                 3.1416
 Frc consts  --      0.8065                 0.7246                 1.8532
 IR Inten    --     16.3179                 0.6776               158.8407

                     46                     47                     48
                      A                      A                      A
 Frequencies --   1005.2145              1007.2792              1063.8384
 Red. masses --      2.3474                 1.6069                 2.6886
 Frc consts  --      1.3975                 0.9606                 1.7928
 IR Inten    --      2.7179                11.1445                 9.1119

                     49                     50                     51
                      A                      A                      A
 Frequencies --   1093.0517              1132.6843              1144.4053
 Red. masses --      4.1173                 2.1385                 2.2284
 Frc consts  --      2.8983                 1.6165                 1.7195
 IR Inten    --    213.8259                20.7262               913.5631

                     52                     53                     54
                      A                      A                      A
 Frequencies --   1144.8947              1167.5713              1190.8823
 Red. masses --      1.5046                 2.0382                 2.7814
 Frc consts  --      1.1620                 1.6371                 2.3241
 IR Inten    --    293.9484                39.2968                 8.3447

                     55                     56                     57
                      A                      A                      A
 Frequencies --   1214.6495              1236.6795              1252.9147
 Red. masses --      1.5156                 8.4519                 6.6861
 Frc consts  --      1.3175                 7.6159                 6.1839
 IR Inten    --     13.3859               331.6004               531.3235

                     58                     59                     60
                      A                      A                      A
 Frequencies --   1257.1777              1257.9824              1294.7667
 Red. masses --     10.2003                 2.7063                 1.4809
 Frc consts  --      9.4986                 2.5233                 1.4627
 IR Inten    --    156.1208                10.8804               127.3080

                     61                     62                     63
                      A                      A                      A
 Frequencies --   1317.0567              1334.2379              1347.5975
 Red. masses --      1.4461                 1.3596                 6.2470
 Frc consts  --      1.4779                 1.4260                 6.6841
 IR Inten    --      8.6793                 5.9794               167.3108

                     64                     65                     66
                      A                      A                      A
 Frequencies --   1349.9526              1351.4739              1416.1697
 Red. masses --      1.1985                 4.7102                 1.6172
 Frc consts  --      1.2869                 5.0688                 1.9109
 IR Inten    --     85.4892                96.3301               197.6126

                     67                     68                     69
                      A                      A                      A
 Frequencies --   1424.6466              1437.9549              1486.4633
 Red. masses --      1.2830                 2.4660                 1.1686
 Frc consts  --      1.5342                 3.0043                 1.5213
 IR Inten    --     14.4097               591.7282                86.3759

                     70                     71                     72
                      A                      A                      A
 Frequencies --   1511.5308              1512.4415              1513.4521
 Red. masses --      1.3163                 1.8685                 2.2413
 Frc consts  --      1.7718                 2.5183                 3.0247
 IR Inten    --    413.1103               320.2351               295.1488

                     73                     74                     75
                      A                      A                      A
 Frequencies --   1524.9218              1528.5431              1565.8096
 Red. masses --      1.0782                 1.0663                 4.1595
 Frc consts  --      1.4772                 1.4679                 6.0085
 IR Inten    --     81.8338                 7.6395               627.4019

                     76                     77                     78
                      A                      A                      A
 Frequencies --   1582.3271              1640.4734              1716.2694
 Red. masses --      6.2564                 6.0407                 8.0908
 Frc consts  --      9.2292                 9.5779                14.0415
 IR Inten    --    186.4321               625.7626               218.5281

                     79                     80                     81
                      A                      A                      A
 Frequencies --   3055.7452              3061.1014              3061.8424
 Red. masses --      1.0648                 1.0409                 1.0656
 Frc consts  --      5.8581                 5.7467                 5.8858
 IR Inten    --     71.5346                99.3898                24.5626

                     82                     83                     84
                      A                      A                      A
 Frequencies --   3113.6821              3125.2001              3136.9499
 Red. masses --      1.0939                 1.0966                 1.1007
 Frc consts  --      6.2486                 6.3105                 6.3815
 IR Inten    --      9.2777                11.2768                40.0805

                     85                     86                     87
                      A                      A                      A
 Frequencies --   3140.9548              3220.4434              3223.4721
 Red. masses --      1.1033                 1.0871                 1.0904
 Frc consts  --      6.4128                 6.6425                 6.6757
 IR Inten    --     61.8272                 3.7063                 2.2166

                     88                     89                     90
                      A                      A                      A
 Frequencies --   3236.6707              3295.2751              3645.3984
 Red. masses --      1.0955                 1.0917                 1.0767
 Frc consts  --      6.7620                 6.9843                 8.4305
 IR Inten    --     11.5188                 4.6814                16.9225

 - Thermochemistry -
 -------------------
 Temperature   298.150 Kelvin.  Pressure   1.00000 Atm.
 Atom     1 has atomic number  6 and mass  12.00000

 Molecular mass:   309.05207 amu.
 Principal axes and moments of inertia in atomic units:
                           1         2         3
     Eigenvalues --  1854.46136********************
           X            0.99999  -0.00460  -0.00237
           Y            0.00481   0.99500   0.09979
           Z            0.00190  -0.09980   0.99501
 This molecule is an asymmetric top.
 Rotational symmetry number  1.
 Warning -- assumption of classical behavior for rotation
           may cause significant error
 Rotational temperatures (Kelvin)      0.04671     0.00486     0.00484
 Rotational constants (GHZ):           0.97319     0.10134     0.10081
 Zero-point vibrational energy     614281.0 (Joules/Mol)
                                  146.81667 (Kcal/Mol)
 Warning -- explicit consideration of  31 degrees of freedom as
           vibrations may cause significant error
 Vibrational temperatures:     30.65    31.70    60.31    63.34    83.94
          (Kelvin)             93.40   135.81   140.66   162.79   250.38
                              265.62   293.65   308.93   342.92   362.88
                              424.03   433.85   436.87   479.44   483.80
                              539.36   569.16   624.18   650.29   714.51
                              729.36   763.95   780.69   802.95   826.92
                              875.64   906.40  1021.76  1030.69  1050.53
                             1114.64  1120.32  1159.65  1200.64  1233.39
                             1248.95  1281.98  1300.96  1418.63  1439.66
                             1446.28  1449.25  1530.62  1572.66  1629.68
                             1646.54  1647.25  1679.87  1713.41  1747.61
                             1779.30  1802.66  1808.80  1809.95  1862.88
                             1894.95  1919.67  1938.89  1942.28  1944.47
                             2037.55  2049.75  2068.89  2138.69  2174.75
                             2176.06  2177.52  2194.02  2199.23  2252.85
                             2276.61  2360.27  2469.33  4396.53  4404.24
                             4405.30  4479.89  4496.46  4513.37  4519.13
                             4633.49  4637.85  4656.84  4741.16  5244.91

 Zero-point correction=                           0.233967 (Hartree/Particle)
 Thermal correction to Energy=                    0.253437
 Thermal correction to Enthalpy=                  0.254381
 Thermal correction to Gibbs Free Energy=         0.182812
 Sum of electronic and zero-point Energies=          -1458.676505
 Sum of electronic and thermal Energies=             -1458.657035
 Sum of electronic and thermal Enthalpies=           -1458.656091
 Sum of electronic and thermal Free Energies=        -1458.727660

                     E (Thermal)             CV                S
                      KCal/Mol        Cal/Mol-Kelvin    Cal/Mol-Kelvin
 Total                  159.034             70.623            150.629
 Electronic               0.000              0.000              0.000
 Translational            0.889              2.981             43.081
 Rotational               0.889              2.981             34.735
 Vibrational            157.257             64.661             72.812
 Vibration     1          0.593              1.985              6.509
 Vibration     2          0.593              1.985              6.442
 Vibration     3          0.595              1.980              5.166
 Vibration     4          0.595              1.980              5.069
 Vibration     5          0.596              1.974              4.513
 Vibration     6          0.597              1.971              4.302
 Vibration     7          0.603              1.953              3.567
 Vibration     8          0.603              1.951              3.498
 Vibration     9          0.607              1.939              3.214
 Vibration    10          0.627              1.874              2.392
 Vibration    11          0.631              1.861              2.281
 Vibration    12          0.640              1.834              2.096
 Vibration    13          0.645              1.819              2.003
 Vibration    14          0.656              1.782              1.815
 Vibration    15          0.664              1.759              1.715
 Vibration    16          0.689              1.684              1.447
 Vibration    17          0.694              1.671              1.408
 Vibration    18          0.695              1.667              1.397
 Vibration    19          0.715              1.609              1.244
 Vibration    20          0.717              1.603              1.230
 Vibration    21          0.746              1.524              1.060
 Vibration    22          0.762              1.480              0.979
 Vibration    23          0.795              1.397              0.846
 Vibration    24          0.811              1.357              0.790
 Vibration    25          0.852              1.258              0.667
 Vibration    26          0.862              1.235              0.641
 Vibration    27          0.886              1.181              0.585
 Vibration    28          0.898              1.156              0.560
 Vibration    29          0.914              1.122              0.528
 Vibration    30          0.931              1.086              0.495
 Vibration    31          0.967              1.014              0.435

 Optimization completed.
    -- Stationary point found.

 1\1\GINC-R4385\Freq\RM062X\Gen\C11H12F3N2O3S1(1-)\ROOT\31-Oct-2018\0\\
 #N Geom=AllCheck Guess=TCheck SCRF=Check Test GenChk RM062X/ChkBas Fre
 q\\4SulfOxyCf3_a1.M062X_6-31pGd_opt\\-1,1\C,-1.4110125272,2.0165556207
 ,0.8115790793\C,0.0005665159,1.5316972596,0.4877601381\C,0.4132576069,
 1.8893584764,-0.943339119\N,1.7558169893,1.4890985161,-1.2904205233\C,
 2.8454060866,2.1739891446,-0.7433508617\O,2.6540037478,3.2925860614,-0
 .240968523\N,3.9924732342,1.4507603009,-0.8771270373\C,5.1789567636,1.
 9323987351,-0.4737262769\C,5.4640092876,3.2173071507,0.1065403349\C,6.

 Normal termination of Gaussian 09 at Wed Oct 31 16:43:06 2018.
