 Gaussian 09, Revision E.01,

 ----------------------------------------------------------------------
 # M062X/Gen 6D SCF=Tight INT(grid=ultrafine) OPT IOP(2/17=4) SCRF=(SMD
 ,Solvent=h2o) maxdisk=2684354560
 ----------------------------------------------------------------------

 --------------------------------------
 4SulfOxyCf3_a1.M062X_6-31pGd_opt_water
 --------------------------------------
 Symbolic Z-matrix:
 Charge = -1 Multiplicity = 1

 SCF Done:  E(RM062X) =  -1458.90434391     A.U. after   18 cycles
 SCF Done:  E(RM062X) =  -1458.95440359     A.U. after   15 cycles
 SCF Done:  E(RM062X) =  -1458.97706438     A.U. after   16 cycles
 SCF Done:  E(RM062X) =  -1458.98071083     A.U. after   15 cycles
 SCF Done:  E(RM062X) =  -1458.98391673     A.U. after   17 cycles
 SCF Done:  E(RM062X) =  -1458.98640449     A.U. after   17 cycles
 SCF Done:  E(RM062X) =  -1458.98710530     A.U. after   16 cycles
 SCF Done:  E(RM062X) =  -1458.98707104     A.U. after   13 cycles
 SCF Done:  E(RM062X) =  -1458.98728259     A.U. after   14 cycles
 SCF Done:  E(RM062X) =  -1458.98736425     A.U. after   13 cycles
 SCF Done:  E(RM062X) =  -1458.98821386     A.U. after   13 cycles
 SCF Done:  E(RM062X) =  -1458.98821712     A.U. after   12 cycles
 SCF Done:  E(RM062X) =  -1458.98821838     A.U. after   11 cycles
 SCF Done:  E(RM062X) =  -1458.98822075     A.U. after   12 cycles
 SCF Done:  E(RM062X) =  -1458.98822143     A.U. after    9 cycles
 SCF Done:  E(RM062X) =  -1458.98828426     A.U. after   14 cycles
 SCF Done:  E(RM062X) =  -1458.98828552     A.U. after   11 cycles
 SCF Done:  E(RM062X) =  -1458.98828494     A.U. after   10 cycles
 Optimization completed.
    -- Stationary point found.

 1\1\GINC-R4423\FOpt\RM062X\Gen\C11H12F3N2O3S1(1-)\ROOT\30-Oct-2018\0\\
 # M062X/Gen 6D SCF=Tight INT(grid=ultrafine) OPT IOP(2/17=4) SCRF=(SMD
 ,Solvent=h2o) maxdisk=2684354560\\4SulfOxyCf3_a1.M062X_6-31pGd_opt_wat
 er\\-1,1\C,-1.9389527813,1.8732122955,-0.13787557\C,-0.5881948127,1.25
 68698097,0.2123523142\C,0.5578171545,2.1958329688,-0.1350741303\N,1.83
 87027267,1.5818885765,0.1847583377\C,3.0197432882,2.2212976696,-0.1037
 989546\O,2.9955419536,3.4559032319,-0.353500213\N,4.0986228227,1.39630
 71054,-0.1217963365\C,5.3544606253,1.8903025352,-0.0307430016\C,5.7255

 Normal termination of Gaussian 09 at Tue Oct 30 17:03:09 2018.
 Gaussian 09:  ES64L-G09RevE.01 30-Nov-2015

 ----------------------------------------------------------------------
 # M062X/Gen 6D SCF=Tight INT(grid=ultrafine) OPT IOP(2/17=4) SCRF=(SMD
 ,Solvent=h2o) Freq=Noraman maxdisk=2684354560 geom=check guess=read IO
 P(2/17=4)
 ----------------------------------------------------------------------

 --------------------------------------
 4SulfOxyCf3_a1.M062X_6-31pGd_opt_water
 --------------------------------------
 Structure from the checkpoint file:  "4SulfOxyCf3_a1.M062X_6-31pGd_opt_water.chk"
 Charge = -1 Multiplicity = 1

 SCF Done:  E(RM062X) =  -1458.98828494     A.U. after    2 cycles
 Optimization completed.
    -- Stationary point found.

 1\1\GINC-R4423\FOpt\RM062X\Gen\C11H12F3N2O3S1(1-)\ROOT\30-Oct-2018\0\\
 # M062X/Gen 6D SCF=Tight INT(grid=ultrafine) OPT IOP(2/17=4) SCRF=(SMD
 ,Solvent=h2o) Freq=Noraman maxdisk=2684354560 geom=check guess=read IO
 P(2/17=4)\\4SulfOxyCf3_a1.M062X_6-31pGd_opt_water\\-1,1\C,-1.938952781
 3,1.8732122955,-0.13787557\C,-0.5881948127,1.2568698097,0.2123523142\C
 ,0.5578171545,2.1958329688,-0.1350741303\N,1.8387027267,1.5818885765,0
 .1847583377\C,3.0197432882,2.2212976696,-0.1037989546\O,2.9955419536,3
 .4559032319,-0.353500213\N,4.0986228227,1.3963071054,-0.1217963365\C,5

 Normal termination of Gaussian 09 at Tue Oct 30 17:04:56 2018.

 ----------------------------------------------------------------------
 #N Geom=AllCheck Guess=TCheck SCRF=Check Test GenChk RM062X/ChkBas Fre
 q
 ----------------------------------------------------------------------

 Structure from the checkpoint file:  "4SulfOxyCf3_a1.M062X_6-31pGd_opt_water.chk"
 --------------------------------------
 4SulfOxyCf3_a1.M062X_6-31pGd_opt_water
 --------------------------------------
 Charge = -1 Multiplicity = 1

                         Standard orientation:
 ---------------------------------------------------------------------
 Center     Atomic      Atomic             Coordinates (Angstroms)
 Number     Number       Type             X           Y           Z
 ---------------------------------------------------------------------
      1          6           0       -8.177539   -0.656138    0.138333
      2          6           0       -6.977932    0.280586    0.035493
      3          6           0       -5.667229   -0.492545    0.040685
      4          7           0       -4.534123    0.418622   -0.035018
      5          6           0       -3.244783   -0.052052    0.020063
      6          8           0       -3.038215   -1.278943   -0.178069
      7          7           0       -2.327605    0.899595    0.333220
      8          6           0       -1.012125    0.707513    0.084086
      9          6           0       -0.453308   -0.224336   -0.847278
     10          6           0       -0.091012    1.567491    0.759417
     11          6           0        1.267121    1.500286    0.552353
     12          6           0        1.772889    0.567031   -0.371993
     13          6           0        0.906066   -0.292044   -1.068857
     14          1           0       -9.117508   -0.096104    0.127596
     15          1           0       -8.142415   -1.237629    1.066350
     16          1           0       -8.196053   -1.361448   -0.700083
     17          1           0       -6.983694    0.987131    0.875573
     18          1           0       -7.043032    0.874596   -0.884266
     19          1           0       -5.636488   -1.173319   -0.816417
     20          1           0       -5.604841   -1.111885    0.947687
     21          1           0       -4.671571    1.344049    0.355345
     22          1           0       -1.109367   -0.877841   -1.406913
     23          1           0       -0.492843    2.294322    1.459148
     24          1           0        1.939786    2.163444    1.089066
     25         16           0        3.473463    0.430379   -0.604012
     26          8           0        4.171610    1.649818   -0.189052
     27          8           0        3.792721   -0.197697   -1.888707
     28          1           0        1.304145   -0.999743   -1.791098
     29          6           0        4.032990   -0.832538    0.640797
     30          9           0        5.345377   -1.012982    0.523422
     31          9           0        3.759832   -0.413655    1.872551
     32          9           0        3.413769   -1.989373    0.426562
 ---------------------------------------------------------------------

 SCF Done:  E(RM062X) =  -1458.98828494     A.U. after    2 cycles

 The electronic state is 1-A.
 Alpha  occ. eigenvalues --  -90.17183 -25.33286 -25.33281 -25.33274 -19.67112
 Alpha  occ. eigenvalues --  -19.67104 -19.60188 -14.76350 -14.72096 -10.84134
 Alpha  occ. eigenvalues --  -10.65696 -10.59864 -10.58475 -10.57465 -10.57409
 Alpha  occ. eigenvalues --  -10.56668 -10.54849 -10.54780 -10.53732 -10.52745
 Alpha  occ. eigenvalues --   -8.48579  -6.40756  -6.40706  -6.40600  -1.50166
 Alpha  occ. eigenvalues --   -1.40870  -1.40858  -1.25862  -1.15294  -1.14764
 Alpha  occ. eigenvalues --   -1.01728  -1.00112  -0.95969  -0.88850  -0.87143
 Alpha  occ. eigenvalues --   -0.85493  -0.84307  -0.78606  -0.76029  -0.72691
 Alpha  occ. eigenvalues --   -0.72315  -0.71703  -0.70086  -0.67438  -0.66455
 Alpha  occ. eigenvalues --   -0.63973  -0.61721  -0.60152  -0.59771  -0.58822
 Alpha  occ. eigenvalues --   -0.57149  -0.56236  -0.56071  -0.55924  -0.54584
 Alpha  occ. eigenvalues --   -0.54104  -0.54023  -0.52601  -0.51702  -0.50597
 Alpha  occ. eigenvalues --   -0.49772  -0.48967  -0.47284  -0.46137  -0.45366
 Alpha  occ. eigenvalues --   -0.43912  -0.43319  -0.43173  -0.41687  -0.41066
 Alpha  occ. eigenvalues --   -0.40874  -0.39265  -0.38818  -0.38627  -0.37326
 Alpha  occ. eigenvalues --   -0.35175  -0.32178  -0.31033  -0.30377  -0.24596
 Alpha virt. eigenvalues --   -0.01838   0.01596   0.01807   0.02840   0.03343
 Alpha virt. eigenvalues --    0.03609   0.03966   0.04267   0.04613   0.04965
 Alpha virt. eigenvalues --    0.05356   0.05812   0.06563   0.07307   0.07447

 Mulliken charges:
               1
     1  C   -0.746950
     2  C   -0.372939
     3  C   -0.368804
     4  N   -0.608210
     5  C    0.847918
     6  O   -0.814279
     7  N   -0.592495
     8  C    0.330359
     9  C    0.521284
    10  C   -0.933982
    11  C    0.255397
    12  C   -0.773491
    13  C   -0.790049
    14  H    0.220963
    15  H    0.220610
    16  H    0.220104
    17  H    0.225677
    18  H    0.229869
    19  H    0.226738
    20  H    0.215609
    21  H    0.446038
    22  H    0.250753
    23  H    0.245420
    24  H    0.275886
    25  S    0.940172
    26  O   -0.533127
    27  O   -0.537354
    28  H    0.274801
    29  C    0.912895
    30  F   -0.279685
    31  F   -0.255383
    32  F   -0.253744
 Sum of Mulliken charges =  -1.00000

 Dipole moment (field-independent basis, Debye):
    X=             -3.0113    Y=              0.6121    Z=              2.7576  Tot=              4.1288
 Quadrupole moment (field-independent basis, Debye-Ang):
   XX=           -166.2939   YY=           -136.5285   ZZ=           -131.2577
   XY=            -15.5877   XZ=              7.9666   YZ=              2.9961

  Exact polarizability: 420.395   8.860 230.045 -14.670  30.459 205.747
 Approx polarizability: 305.694   4.178 201.170 -10.570  28.484 182.033

                      1                      2                      3
                      A                      A                      A
 Frequencies --     18.7472                31.8235                39.4032
 Red. masses --      6.6943                 5.9176                 9.5342
 Frc consts  --      0.0014                 0.0035                 0.0087
 IR Inten    --      1.2388                 8.5985                 1.0340

                      4                      5                      6
                      A                      A                      A
 Frequencies --     44.8163                58.7409                64.9755
 Red. masses --      6.0800                 3.8826                 2.7947
 Frc consts  --      0.0072                 0.0079                 0.0070
 IR Inten    --      2.0728                 4.7500                 2.4541

                      7                      8                      9
                      A                      A                      A
 Frequencies --     79.4577               103.2492               128.0637
 Red. masses --      3.0390                 4.7444                 5.4340
 Frc consts  --      0.0113                 0.0298                 0.0525
 IR Inten    --     11.4559                 6.8504                22.2177

                     10                     11                     12
                      A                      A                      A
 Frequencies --    154.6878               183.4703               186.8555
 Red. masses --      4.5648                 7.2037                 5.1871
 Frc consts  --      0.0644                 0.1429                 0.1067
 IR Inten    --     35.2479                 3.8614                 4.9248

                     13                     14                     15
                      A                      A                      A
 Frequencies --    196.6259               231.7176               246.6193
 Red. masses --     13.9432                 3.9771                 1.3477
 Frc consts  --      0.3176                 0.1258                 0.0483
 IR Inten    --      2.1746                 7.2217                 0.7201

                     16                     17                     18
                      A                      A                      A
 Frequencies --    249.5307               305.7179               319.7530
 Red. masses --      5.2161                12.5503                 9.5955
 Frc consts  --      0.1914                 0.6911                 0.5780
 IR Inten    --      5.5040                 2.2650                 2.7119

                     19                     20                     21
                      A                      A                      A
 Frequencies --    333.7651               347.6533               349.3050
 Red. masses --      7.0751                 7.5561                 4.4680
 Frc consts  --      0.4644                 0.5381                 0.3212
 IR Inten    --      4.2231                18.9639                34.6272

                     22                     23                     24
                      A                      A                      A
 Frequencies --    391.3167               425.2590               447.7628
 Red. masses --      9.6261                 3.1035                 4.4565
 Frc consts  --      0.8685                 0.3307                 0.5264
 IR Inten    --     23.8942                 2.3233                24.0765

                     25                     26                     27
                      A                      A                      A
 Frequencies --    461.5998               491.9519               503.7331
 Red. masses --      2.1648                 2.9389                 3.1959
 Frc consts  --      0.2718                 0.4191                 0.4778
 IR Inten    --    108.3066               374.9526                15.5840

                     28                     29                     30
                      A                      A                      A
 Frequencies --    531.1452               557.2374               562.2661
 Red. masses --      4.8098                17.0399                 9.8400
 Frc consts  --      0.7995                 3.1174                 1.8329
 IR Inten    --     86.2074                 0.0996               193.6531

                     31                     32                     33
                      A                      A                      A
 Frequencies --    592.6653               629.1745               711.5811
 Red. masses --      8.6425                 7.1346                 6.8714
 Frc consts  --      1.7886                 1.6640                 2.0499
 IR Inten    --    369.7061                 4.9615               292.9926

                     34                     35                     36
                      A                      A                      A
 Frequencies --    716.3715               760.3127               767.1883
 Red. masses --      3.4875                 1.9292                 1.8044
 Frc consts  --      1.0545                 0.6571                 0.6257
 IR Inten    --      2.5869                85.5270                64.1179

                     37                     38                     39
                      A                      A                      A
 Frequencies --    781.9681               802.1826               827.7217
 Red. masses --     15.8820                 6.3697                 1.2625
 Frc consts  --      5.7218                 2.4150                 0.5096
 IR Inten    --     36.9592               131.2732                18.3789

                     40                     41                     42
                      A                      A                      A
 Frequencies --    848.6427               871.5437               908.3495
 Red. masses --      2.6356                 3.7198                 1.1605
 Frc consts  --      1.1184                 1.6648                 0.5642
 IR Inten    --     81.6905                43.3104                20.3711

                     43                     44                     45
                      A                      A                      A
 Frequencies --    934.2111               988.3088               999.6649
 Red. masses --      1.6532                 1.2802                 3.0564
 Frc consts  --      0.8501                 0.7367                 1.7996
 IR Inten    --      1.5185                 1.5975               227.4878

                     46                     47                     48
                      A                      A                      A
 Frequencies --   1001.0001              1034.5018              1077.4784
 Red. masses --      1.4135                 5.0409                 4.4659
 Frc consts  --      0.8345                 3.1785                 3.0548
 IR Inten    --     21.2701                88.1328               231.5184

                     49                     50                     51
                      A                      A                      A
 Frequencies --   1081.6951              1115.8617              1141.4540
 Red. masses --      2.7593                 3.2153                 1.6889
 Frc consts  --      1.9022                 2.3588                 1.2965
 IR Inten    --     89.6505              2306.4158                46.1128

                     52                     53                     54
                      A                      A                      A
 Frequencies --   1148.2385              1170.4223              1185.6695
 Red. masses --      1.5523                 1.8789                 2.7404
 Frc consts  --      1.2058                 1.5165                 2.2698
 IR Inten    --     43.2744                 5.3672                13.5073

                     55                     56                     57
                      A                      A                      A
 Frequencies --   1208.5991              1225.1144              1245.2763
 Red. masses --      1.5826                 5.0188                12.9400
 Frc consts  --      1.3620                 4.4382                11.8227
 IR Inten    --     38.4617               405.3501               463.9773

                     58                     59                     60
                      A                      A                      A
 Frequencies --   1248.1689              1264.9289              1281.7569
 Red. masses --     13.3115                 1.6508                 1.4027
 Frc consts  --     12.2187                 1.5563                 1.3577
 IR Inten    --    210.7481               289.8475               418.4045

                     61                     62                     63
                      A                      A                      A
 Frequencies --   1296.8006              1319.9044              1326.9205
 Red. masses --     16.7611                 1.3905                 1.0851
 Frc consts  --     16.6073                 1.4272                 1.1257
 IR Inten    --    654.0278                 2.9417                27.7194

                     64                     65                     66
                      A                      A                      A
 Frequencies --   1345.6099              1352.9133              1399.5658
 Red. masses --      1.4884                 4.4571                 2.9030
 Frc consts  --      1.5878                 4.8067                 3.3503
 IR Inten    --     20.2017                44.8200              1642.0512

                     67                     68                     69
                      A                      A                      A
 Frequencies --   1421.1474              1434.8567              1491.3602
 Red. masses --      1.3090                 1.8936                 1.1675
 Frc consts  --      1.5576                 2.2969                 1.5300
 IR Inten    --    146.8500               635.9157               269.8366

                     70                     71                     72
                      A                      A                      A
 Frequencies --   1497.0089              1502.4448              1503.6678
 Red. masses --      2.3086                 2.1010                 1.1021
 Frc consts  --      3.0483                 2.7942                 1.4682
 IR Inten    --    752.3002               450.0775               102.6209

                     73                     74                     75
                      A                      A                      A
 Frequencies --   1515.6296              1530.3375              1536.4176
 Red. masses --      1.1977                 1.5011                 1.9818
 Frc consts  --      1.6210                 2.0712                 2.7563
 IR Inten    --    389.6366               378.4022               121.6285

                     76                     77                     78
                      A                      A                      A
 Frequencies --   1569.0647              1593.9979              1662.1679
 Red. masses --      4.5106                 6.8258                 6.2144
 Frc consts  --      6.5428                10.2183                10.1157
 IR Inten    --    411.8921               189.2798               412.5771

                     79                     80                     81
                      A                      A                      A
 Frequencies --   3046.3738              3071.3799              3075.6957
 Red. masses --      1.0693                 1.0610                 1.0363
 Frc consts  --      5.8467                 5.8969                 5.7760
 IR Inten    --     83.1112                53.0442                45.3209

                     82                     83                     84
                      A                      A                      A
 Frequencies --   3105.0048              3123.1845              3145.2182
 Red. masses --      1.0975                 1.0995                 1.1036
 Frc consts  --      6.2340                 6.3187                 6.4325
 IR Inten    --     12.4404                64.0802                97.9022

                     85                     86                     87
                      A                      A                      A
 Frequencies --   3153.6472              3231.5274              3235.6355
 Red. masses --      1.1023                 1.0888                 1.0915
 Frc consts  --      6.4591                 6.6991                 6.7326
 IR Inten    --     52.5140                 5.4427                 0.0857

                     88                     89                     90
                      A                      A                      A
 Frequencies --   3245.0352              3281.3817              3617.8373
 Red. masses --      1.0961                 1.0924                 1.0777
 Frc consts  --      6.8007                 6.9301                 8.3111
 IR Inten    --      4.3698                 0.4646                90.1890

 - Thermochemistry -
 -------------------
 Temperature   298.150 Kelvin.  Pressure   1.00000 Atm.
 Atom     1 has atomic number  6 and mass  12.00000

 Molecular mass:   309.05207 amu.
 Principal axes and moments of inertia in atomic units:
                           1         2         3
     Eigenvalues --  1765.56375********************
           X            0.99997   0.00696  -0.00269
           Y           -0.00662   0.99373   0.11158
           Z            0.00345  -0.11156   0.99375
 This molecule is an asymmetric top.
 Rotational symmetry number  1.
 Warning -- assumption of classical behavior for rotation
           may cause significant error
 Rotational temperatures (Kelvin)      0.04906     0.00466     0.00457
 Rotational constants (GHZ):           1.02219     0.09702     0.09525
 Zero-point vibrational energy     611585.1 (Joules/Mol)
                                  146.17234 (Kcal/Mol)
 Warning -- explicit consideration of  31 degrees of freedom as
           vibrations may cause significant error
 Vibrational temperatures:     26.97    45.79    56.69    64.48    84.51
          (Kelvin)             93.49   114.32   148.55   184.25   222.56
                              263.97   268.84   282.90   333.39   354.83
                              359.02   439.86   460.05   480.21   500.19
                              502.57   563.02   611.85   644.23   664.14
                              707.81   724.76   764.20   801.74   808.97
                              852.71   905.24  1023.81  1030.70  1093.92
                             1103.81  1125.08  1154.16  1190.91  1221.01
                             1253.96  1306.91  1344.12  1421.95  1438.29
                             1440.21  1488.42  1550.25  1556.32  1605.47
                             1642.30  1652.06  1683.97  1705.91  1738.90
                             1762.66  1791.67  1795.83  1819.95  1844.16
                             1865.80  1899.05  1909.14  1936.03  1946.54
                             2013.66  2044.71  2064.44  2145.73  2153.86
                             2161.68  2163.44  2180.65  2201.81  2210.56
                             2257.53  2293.40  2391.49  4383.05  4419.03
                             4425.23  4467.40  4493.56  4525.26  4537.39
                             4649.44  4655.35  4668.88  4721.17  5205.25

 Zero-point correction=                           0.232940 (Hartree/Particle)
 Thermal correction to Energy=                    0.252634
 Thermal correction to Enthalpy=                  0.253579
 Thermal correction to Gibbs Free Energy=         0.181618
 Sum of electronic and zero-point Energies=          -1458.755344
 Sum of electronic and thermal Energies=             -1458.735651
 Sum of electronic and thermal Enthalpies=           -1458.734706
 Sum of electronic and thermal Free Energies=        -1458.806667

                     E (Thermal)             CV                S
                      KCal/Mol        Cal/Mol-Kelvin    Cal/Mol-Kelvin
 Total                  158.530             71.067            151.453
 Electronic               0.000              0.000              0.000
 Translational            0.889              2.981             43.081
 Rotational               0.889              2.981             34.786
 Vibrational            156.753             65.105             73.586
 Vibration     1          0.593              1.986              6.763
 Vibration     2          0.594              1.983              5.712
 Vibration     3          0.594              1.981              5.289
 Vibration     4          0.595              1.979              5.034
 Vibration     5          0.596              1.974              4.499
 Vibration     6          0.597              1.971              4.300
 Vibration     7          0.600              1.963              3.904
 Vibration     8          0.605              1.947              3.392
 Vibration     9          0.611              1.925              2.975
 Vibration    10          0.620              1.897              2.614
 Vibration    11          0.631              1.862              2.293
 Vibration    12          0.632              1.858              2.259
 Vibration    13          0.636              1.845              2.164
 Vibration    14          0.653              1.792              1.866
 Vibration    15          0.661              1.768              1.755
 Vibration    16          0.662              1.764              1.734
 Vibration    17          0.696              1.663              1.385
 Vibration    18          0.706              1.636              1.311
 Vibration    19          0.715              1.608              1.242
 Vibration    20          0.725              1.580              1.177
 Vibration    21          0.727              1.577              1.169
 Vibration    22          0.759              1.489              0.995
 Vibration    23          0.787              1.415              0.874
 Vibration    24          0.807              1.366              0.803
 Vibration    25          0.819              1.335              0.761
 Vibration    26          0.848              1.268              0.679
 Vibration    27          0.859              1.242              0.649
 Vibration    28          0.886              1.181              0.585
 Vibration    29          0.913              1.124              0.529
 Vibration    30          0.918              1.113              0.519
 Vibration    31          0.950              1.047              0.462

 Optimization completed.
    -- Stationary point found.

 1\1\GINC-R4423\Freq\RM062X\Gen\C11H12F3N2O3S1(1-)\ROOT\30-Oct-2018\0\\
 #N Geom=AllCheck Guess=TCheck SCRF=Check Test GenChk RM062X/ChkBas Fre
 q\\4SulfOxyCf3_a1.M062X_6-31pGd_opt_water\\-1,1\C,-1.9389527813,1.8732
 122955,-0.13787557\C,-0.5881948127,1.2568698097,0.2123523142\C,0.55781
 71545,2.1958329688,-0.1350741303\N,1.8387027267,1.5818885765,0.1847583
 377\C,3.0197432882,2.2212976696,-0.1037989546\O,2.9955419536,3.4559032
 319,-0.353500213\N,4.0986228227,1.3963071054,-0.1217963365\C,5.3544606
 253,1.8903025352,-0.0307430016\C,5.7255485971,3.1714622814,0.487889235

 Normal termination of Gaussian 09 at Tue Oct 30 18:05:55 2018.
