 Gaussian 09, Revision E.01,

 ----------------------------------------------------------------------
 # M062X/Gen 6D SCF=Tight INT(grid=ultrafine) OPT=CalcFC IOP(2/17=4) ma
 xdisk=2147483648
 ----------------------------------------------------------------------

 -----------------------------
 3TFM4Chloro.M062X_6-31pGd_opt
 -----------------------------
 Symbolic Z-matrix:
 Charge =  0 Multiplicity = 1

 SCF Done:  E(RM062X) =  -1370.51872207     A.U. after   15 cycles
 SCF Done:  E(RM062X) =  -1370.53246462     A.U. after   14 cycles
 SCF Done:  E(RM062X) =  -1370.53195063     A.U. after   14 cycles
 SCF Done:  E(RM062X) =  -1370.53247364     A.U. after   10 cycles
 SCF Done:  E(RM062X) =  -1370.53282169     A.U. after   13 cycles
 SCF Done:  E(RM062X) =  -1370.53290763     A.U. after   13 cycles
 SCF Done:  E(RM062X) =  -1370.53290531     A.U. after   13 cycles
 SCF Done:  E(RM062X) =  -1370.53292741     A.U. after   13 cycles
 SCF Done:  E(RM062X) =  -1370.53292949     A.U. after   11 cycles
 SCF Done:  E(RM062X) =  -1370.53292999     A.U. after   11 cycles
 SCF Done:  E(RM062X) =  -1370.53293004     A.U. after    9 cycles
 SCF Done:  E(RM062X) =  -1370.53293007     A.U. after    9 cycles
 Optimization completed.
    -- Stationary point found.
 Normal termination of Gaussian 09 at Wed Feb 27 11:29:47 2019.
 Gaussian 09:  ES64L-G09RevE.01 30-Nov-2015

 ----------------------------------------------------------------------
 # M062X/Gen 6D SCF=Tight INT(grid=ultrafine) Freq=Noraman maxdisk=2147
 483648 geom=check guess=read IOP(2/17=4)
 ----------------------------------------------------------------------

 -----------------------------
 3TFM4Chloro.M062X_6-31pGd_opt
 -----------------------------
 Structure from the checkpoint file:  "3TFM4Chloro.M062X_6-31pGd_opt.chk"
 Charge =  0 Multiplicity = 1

                         Standard orientation:
 ---------------------------------------------------------------------
 Center     Atomic      Atomic             Coordinates (Angstroms)
 Number     Number       Type             X           Y           Z
 ---------------------------------------------------------------------
      1          6           0        7.234180    0.743227   -0.038914
      2          6           0        6.097323   -0.276070   -0.060305
      3          6           0        4.739517    0.398225    0.086890
      4          7           0        3.671437   -0.594275    0.063511
      5          6           0        2.369176   -0.162080   -0.030974
      6          8           0        2.070188    1.001826   -0.230611
      7          7           0        1.439681   -1.188309    0.092117
      8          6           0        0.043925   -1.079300    0.037717
      9          6           0       -0.636985    0.143762    0.046473
     10          6           0       -0.696447   -2.266424   -0.001817
     11          6           0       -2.082926   -2.241166   -0.029529
     12          6           0       -2.759357   -1.026184   -0.019750
     13          6           0       -2.029872    0.163866    0.017883
     14          1           0        8.205681    0.253296   -0.147374
     15          1           0        7.243318    1.303435    0.902076
     16          1           0        7.127967    1.463971   -0.856437
     17          1           0        6.239319   -0.999722    0.754645
     18          1           0        6.113234   -0.844125   -0.997953
     19          1           0        4.560728    1.089572   -0.740911
     20          1           0        4.701009    0.988934    1.013280
     21          1           0        3.847763   -1.447228    0.580426
     22          1           0        1.798530   -2.133155    0.054812
     23          1           0       -0.082585    1.071252    0.066531
     24          1           0       -0.183696   -3.225462   -0.009608
     25          1           0       -2.648673   -3.166211   -0.060405
     26         17           0       -4.497262   -1.042651   -0.055003
     27          6           0       -2.733872    1.500522    0.029263
     28          9           0       -1.864925    2.521430    0.063330
     29          9           0       -3.534847    1.633119    1.099965
     30          9           0       -3.497611    1.672531   -1.062202
 ---------------------------------------------------------------------

 SCF Done:  E(RM062X) =  -1370.53293007     A.U. after    1 cycles

 The electronic state is 1-A.
 Alpha  occ. eigenvalues -- -102.67872 -25.29733 -25.29320 -25.29308 -19.62859
 Alpha  occ. eigenvalues --  -14.82268 -14.80239 -10.81089 -10.70209 -10.63264
 Alpha  occ. eigenvalues --  -10.62915 -10.59866 -10.59335 -10.58629 -10.58548
 Alpha  occ. eigenvalues --  -10.57707 -10.56510 -10.55157  -9.82518  -7.54935
 Alpha  occ. eigenvalues --   -7.54249  -7.54232  -1.46300  -1.37005  -1.36696
 Alpha  occ. eigenvalues --   -1.19614  -1.07998  -1.04718  -1.01344  -0.94933
 Alpha  occ. eigenvalues --   -0.90480  -0.89699  -0.85067  -0.81233  -0.78955
 Alpha  occ. eigenvalues --   -0.74455  -0.72686  -0.70179  -0.69762  -0.68523
 Alpha  occ. eigenvalues --   -0.68318  -0.66728  -0.64686  -0.60165  -0.57961
 Alpha  occ. eigenvalues --   -0.57162  -0.56860  -0.56666  -0.55349  -0.54719
 Alpha  occ. eigenvalues --   -0.53859  -0.53030  -0.52593  -0.51428  -0.51218
 Alpha  occ. eigenvalues --   -0.50419  -0.49505  -0.49068  -0.48170  -0.46963
 Alpha  occ. eigenvalues --   -0.45977  -0.44363  -0.44063  -0.43219  -0.41990
 Alpha  occ. eigenvalues --   -0.41333  -0.38327  -0.37552  -0.36292  -0.34023
 Alpha  occ. eigenvalues --   -0.33630  -0.28371
 Alpha virt. eigenvalues --   -0.01364  -0.01280  -0.00067   0.01428   0.02301
 Alpha virt. eigenvalues --    0.02616   0.03163   0.03370   0.04309   0.04938
 Alpha virt. eigenvalues --    0.05404   0.05818   0.06189   0.06685   0.07118

 Mulliken charges:
               1
     1  C   -0.711866
     2  C   -0.320461
     3  C   -0.155318
     4  N   -0.568914
     5  C    0.722780
     6  O   -0.559539
     7  N   -0.671012
     8  C   -0.172609
     9  C    0.274423
    10  C   -0.831880
    11  C   -0.127880
    12  C    0.447111
    13  C   -1.173692
    14  H    0.215024
    15  H    0.214816
    16  H    0.216343
    17  H    0.201816
    18  H    0.227318
    19  H    0.244120
    20  H    0.217055
    21  H    0.384871
    22  H    0.411947
    23  H    0.304516
    24  H    0.203564
    25  H    0.234697
    26  Cl   0.280640
    27  C    1.348406
    28  F   -0.333138
    29  F   -0.262023
    30  F   -0.261116
 Sum of Mulliken charges =  -0.00000

 Dipole moment (field-independent basis, Debye):
    X=              5.8660    Y=             -5.5262    Z=              0.9404  Tot=              8.1138
 Quadrupole moment (field-independent basis, Debye-Ang):
   XX=           -102.6065   YY=           -105.7103   ZZ=           -114.7315
   XY=             -2.5089   XZ=              3.3423   YZ=             -0.7041

  Exact polarizability: 236.150   6.802 153.498   1.896  -0.340 100.039
 Approx polarizability: 234.396   0.933 200.133   2.463  -1.539 130.738

                      1                      2                      3
                      A                      A                      A
 Frequencies --     16.8152                19.8480                51.5493
 Red. masses --      2.5976                 5.6390                 7.6661
 Frc consts  --      0.0004                 0.0013                 0.0120
 IR Inten    --      3.6082                 0.2059                 1.6046

                      4                      5                      6
                      A                      A                      A
 Frequencies --     53.0928                61.1135                73.2853
 Red. masses --      4.8230                 4.2511                 3.4096
 Frc consts  --      0.0080                 0.0094                 0.0108
 IR Inten    --      0.8354                 4.8426                 0.4820

                      7                      8                      9
                      A                      A                      A
 Frequencies --    111.9404               123.4945               145.4802
 Red. masses --      5.1901                 6.4871                 7.5523
 Frc consts  --      0.0383                 0.0583                 0.0942
 IR Inten    --      0.1769                 2.5620                 0.1439

                     10                     11                     12
                      A                      A                      A
 Frequencies --    169.1206               189.0703               225.9752
 Red. masses --      9.9709                 2.7557                 5.7999
 Frc consts  --      0.1680                 0.0580                 0.1745
 IR Inten    --      2.6930                 0.6995                 0.8840

                     13                     14                     15
                      A                      A                      A
 Frequencies --    235.7926               249.5088               307.0743
 Red. masses --      1.1502                 5.7432                15.3204
 Frc consts  --      0.0377                 0.2107                 0.8512
 IR Inten    --      0.0143                 8.8080                 1.4351

                     16                     17                     18
                      A                      A                      A
 Frequencies --    312.4384               337.2085               349.0269
 Red. masses --      4.9252                 3.4251                 4.3163
 Frc consts  --      0.2833                 0.2295                 0.3098
 IR Inten    --      1.7079                47.0871                 1.9596

                     19                     20                     21
                      A                      A                      A
 Frequencies --    368.2090               377.3010               420.0782
 Red. masses --      1.9020                 7.3058                 3.8030
 Frc consts  --      0.1519                 0.6128                 0.3954
 IR Inten    --     42.9801                 4.3367                13.3342

                     22                     23                     24
                      A                      A                      A
 Frequencies --    455.6874               464.3879               488.3521
 Red. masses --      6.4421                 3.9402                 1.3860
 Frc consts  --      0.7882                 0.5006                 0.1947
 IR Inten    --      4.0573                 4.2467               106.6692

                     25                     26                     27
                      A                      A                      A
 Frequencies --    532.8006               539.9955               596.2080
 Red. masses --      4.4633                 6.9429                 8.3520
 Frc consts  --      0.7465                 1.1928                 1.7492
 IR Inten    --     39.6004                15.6229                 4.4085

                     28                     29                     30
                      A                      A                      A
 Frequencies --    647.6428               673.6084               708.9133
 Red. masses --      4.5742                 8.4751                 6.6781
 Frc consts  --      1.1304                 2.2657                 1.9774
 IR Inten    --      3.7036                20.9480                 8.4248

                     31                     32                     33
                      A                      A                      A
 Frequencies --    743.1394               752.2053               765.0471
 Red. masses --      5.2046                 1.8492                 2.0377
 Frc consts  --      1.6935                 0.6165                 0.7027
 IR Inten    --      0.1377                10.4922                 3.9592

                     34                     35                     36
                      A                      A                      A
 Frequencies --    774.8574               797.2831               841.2910
 Red. masses --      8.6495                 5.8035                 1.4499
 Frc consts  --      3.0597                 2.1735                 0.6046
 IR Inten    --      3.5999                15.7960                36.2352

                     37                     38                     39
                      A                      A                      A
 Frequencies --    898.8629               927.3519               944.7832
 Red. masses --      1.1827                 1.8325                 1.4077
 Frc consts  --      0.5630                 0.9285                 0.7403
 IR Inten    --      2.5873                 1.2614                20.4091

                     40                     41                     42
                      A                      A                      A
 Frequencies --    956.2266               974.2051              1044.9880
 Red. masses --      4.5640                 1.3321                 4.2406
 Frc consts  --      2.4588                 0.7449                 2.7284
 IR Inten    --     20.2522                 2.7175                 1.1984

                     43                     44                     45
                      A                      A                      A
 Frequencies --   1052.8154              1079.9985              1146.9939
 Red. masses --      5.3887                 2.6260                 2.7852
 Frc consts  --      3.5192                 1.8047                 2.1589
 IR Inten    --     26.6106                 3.9930                 9.7132

                     46                     47                     48
                      A                      A                      A
 Frequencies --   1156.3711              1164.3576              1180.5333
 Red. masses --      2.2950                 2.4221                 1.7398
 Frc consts  --      1.8081                 1.9347                 1.4286
 IR Inten    --     70.5354                 3.6527                 0.4880

                     49                     50                     51
                      A                      A                      A
 Frequencies --   1186.8769              1226.0088              1238.0272
 Red. masses --      1.5302                12.8644                 1.8843
 Frc consts  --      1.2701                11.3927                 1.7016
 IR Inten    --      1.5443               260.3943               427.4744

                     52                     53                     54
                      A                      A                      A
 Frequencies --   1248.3226              1277.2880              1284.6732
 Red. masses --      3.9817                 2.0047                 1.4885
 Frc consts  --      3.6557                 1.9269                 1.4474
 IR Inten    --     80.8402                16.0460                99.3528

                     55                     56                     57
                      A                      A                      A
 Frequencies --   1302.6811              1318.9638              1327.7722
 Red. masses --      1.7811                 2.6498                 1.2241
 Frc consts  --      1.7808                 2.7160                 1.2715
 IR Inten    --     59.5983               114.4123                47.9192

                     58                     59                     60
                      A                      A                      A
 Frequencies --   1347.4129              1379.5740              1425.8589
 Red. masses --      1.3927                 4.2756                 1.5215
 Frc consts  --      1.4898                 4.7945                 1.8225
 IR Inten    --     15.3117               153.9657                 2.2529

                     61                     62                     63
                      A                      A                      A
 Frequencies --   1437.0900              1480.4488              1515.6875
 Red. masses --      1.3194                 5.0933                 1.0601
 Frc consts  --      1.6054                 6.5771                 1.4349
 IR Inten    --      2.4351               278.7032                 8.3718

                     64                     65                     66
                      A                      A                      A
 Frequencies --   1523.7226              1527.1877              1528.5533
 Red. masses --      1.0691                 1.0744                 1.7258
 Frc consts  --      1.4625                 1.4763                 2.3758
 IR Inten    --     38.6942                 2.4143               248.8197

                     67                     68                     69
                      A                      A                      A
 Frequencies --   1539.9450              1551.8045              1587.9493
 Red. masses --      1.1622                 2.2069                 2.4879
 Frc consts  --      1.6239                 3.1312                 3.6963
 IR Inten    --     38.4119                55.6367               908.8561

                     70                     71                     72
                      A                      A                      A
 Frequencies --   1670.5809              1695.4097              1825.6090
 Red. masses --      6.0600                 6.4598                 8.8358
 Frc consts  --      9.9645                10.9401                17.3505
 IR Inten    --     68.0278                14.0742               259.8562

                     73                     74                     75
                      A                      A                      A
 Frequencies --   3055.7517              3057.4890              3080.5402
 Red. masses --      1.0675                 1.0691                 1.0365
 Frc consts  --      5.8727                 5.8883                 5.7951
 IR Inten    --     17.8286                41.8998                29.4140

                     76                     77                     78
                      A                      A                      A
 Frequencies --   3106.4711              3146.5879              3153.1767
 Red. masses --      1.0960                 1.0973                 1.1007
 Frc consts  --      6.2318                 6.4012                 6.4481
 IR Inten    --     16.4146                 1.5861                46.5953

                     79                     80                     81
                      A                      A                      A
 Frequencies --   3161.3966              3210.3165              3250.1380
 Red. masses --      1.1019                 1.0904                 1.0942
 Frc consts  --      6.4884                 6.6209                 6.8099
 IR Inten    --     28.0471                11.6935                 0.7329

                     82                     83                     84
                      A                      A                      A
 Frequencies --   3304.0446              3620.9683              3639.9693
 Red. masses --      1.0915                 1.0772                 1.0770
 Frc consts  --      7.0204                 8.3214                 8.4077
 IR Inten    --     23.7672                22.2192                31.0985

 - Thermochemistry -
 -------------------
 Temperature   298.150 Kelvin.  Pressure   1.00000 Atm.
 Atom     1 has atomic number  6 and mass  12.00000

 Molecular mass:   280.05903 amu.
 Principal axes and moments of inertia in atomic units:
                           1         2         3
     Eigenvalues --  2056.39367********************
           X            0.99995   0.00965   0.00052
           Y           -0.00964   0.99995  -0.00154
           Z           -0.00053   0.00154   1.00000
 This molecule is an asymmetric top.
 Rotational symmetry number  1.
 Warning -- assumption of classical behavior for rotation
           may cause significant error
 Rotational temperatures (Kelvin)      0.04212     0.00676     0.00597
 Rotational constants (GHZ):           0.87762     0.14079     0.12437
 Zero-point vibrational energy     596581.4 (Joules/Mol)
                                  142.58638 (Kcal/Mol)
 Warning -- explicit consideration of  27 degrees of freedom as
           vibrations may cause significant error
 Vibrational temperatures:     24.19    28.56    74.17    76.39    87.93
          (Kelvin)            105.44   161.06   177.68   209.31   243.33
                              272.03   325.13   339.25   358.99   441.81
                              449.53   485.17   502.17   529.77   542.85
                              604.40   655.63   668.15   702.63   766.58
                              776.93   857.81   931.81   969.17  1019.97
                             1069.21  1082.25  1100.73  1114.85  1147.11
                             1210.43  1293.26  1334.25  1359.33  1375.80
                             1401.66  1503.50  1514.76  1553.87  1650.27
                             1663.76  1675.25  1698.52  1707.65  1763.95
                             1781.24  1796.06  1837.73  1848.36  1874.27
                             1897.69  1910.37  1938.62  1984.90  2051.49
                             2067.65  2130.03  2180.73  2192.29  2197.28
                             2199.24  2215.63  2232.70  2284.70  2403.59
                             2439.31  2626.64  4396.54  4399.04  4432.20
                             4469.51  4527.23  4536.71  4548.54  4618.92
                             4676.22  4753.78  5209.76  5237.10

 Zero-point correction=                           0.227226 (Hartree/Particle)
 Thermal correction to Energy=                    0.245168
 Thermal correction to Enthalpy=                  0.246112
 Thermal correction to Gibbs Free Energy=         0.177863
 Sum of electronic and zero-point Energies=          -1370.305704
 Sum of electronic and thermal Energies=             -1370.287762
 Sum of electronic and thermal Enthalpies=           -1370.286818
 Sum of electronic and thermal Free Energies=        -1370.355067

                     E (Thermal)             CV                S
                      KCal/Mol        Cal/Mol-Kelvin    Cal/Mol-Kelvin
 Total                  153.845             64.425            143.643
 Electronic               0.000              0.000              0.000
 Translational            0.889              2.981             42.788
 Rotational               0.889              2.981             34.302
 Vibrational            152.068             58.464             66.553
 Vibration     1          0.593              1.986              6.979
 Vibration     2          0.593              1.986              6.649
 Vibration     3          0.596              1.977              4.757
 Vibration     4          0.596              1.976              4.699
 Vibration     5          0.597              1.973              4.421
 Vibration     6          0.599              1.967              4.063
 Vibration     7          0.607              1.940              3.235
 Vibration     8          0.610              1.929              3.045
 Vibration     9          0.617              1.908              2.731
 Vibration    10          0.625              1.880              2.445
 Vibration    11          0.633              1.855              2.237
 Vibration    12          0.650              1.801              1.911
 Vibration    13          0.655              1.786              1.834
 Vibration    14          0.662              1.764              1.734
 Vibration    15          0.697              1.660              1.378
 Vibration    16          0.701              1.650              1.349
 Vibration    17          0.718              1.601              1.225
 Vibration    18          0.726              1.577              1.171
 Vibration    19          0.741              1.538              1.087
 Vibration    20          0.748              1.519              1.050
 Vibration    21          0.783              1.427              0.892
 Vibration    22          0.814              1.348              0.779
 Vibration    23          0.822              1.329              0.753
 Vibration    24          0.844              1.276              0.688
 Vibration    25          0.888              1.177              0.581
 Vibration    26          0.895              1.162              0.565
 Vibration    27          0.954              1.040              0.456

 Optimization completed.
    -- Stationary point found.
 Normal termination of Gaussian 09 at Wed Feb 27 12:12:07 2019.
