 Gaussian 09, Revision E.01,

 ----------------------------------------------------------------------
 # M062X/Gen 6D SCF=Tight INT(grid=ultrafine) OPT IOP(2/17=4) maxdisk=2
 684354560
 ----------------------------------------------------------------------

 ----------------------------
 3TMF4Nitro.M062X_6-31pGd_opt
 ----------------------------
 Symbolic Z-matrix:
 Charge =  0 Multiplicity = 1

 SCF Done:  E(RM062X) =  -1115.36561729     A.U. after   16 cycles
 SCF Done:  E(RM062X) =  -1115.38782624     A.U. after   15 cycles
 SCF Done:  E(RM062X) =  -1115.38791291     A.U. after   15 cycles
 SCF Done:  E(RM062X) =  -1115.38924200     A.U. after   14 cycles
 SCF Done:  E(RM062X) =  -1115.39021467     A.U. after   14 cycles
 SCF Done:  E(RM062X) =  -1115.38889181     A.U. after   15 cycles
 SCF Done:  E(RM062X) =  -1115.39024566     A.U. after   10 cycles
 SCF Done:  E(RM062X) =  -1115.39027051     A.U. after   12 cycles
 SCF Done:  E(RM062X) =  -1115.39027940     A.U. after   12 cycles
 SCF Done:  E(RM062X) =  -1115.39027535     A.U. after   12 cycles
 SCF Done:  E(RM062X) =  -1115.39155950     A.U. after   14 cycles
 SCF Done:  E(RM062X) =  -1115.39156200     A.U. after   13 cycles
 SCF Done:  E(RM062X) =  -1115.39156344     A.U. after   13 cycles
 SCF Done:  E(RM062X) =  -1115.39156450     A.U. after   11 cycles
 SCF Done:  E(RM062X) =  -1115.39156581     A.U. after   13 cycles
 SCF Done:  E(RM062X) =  -1115.39156618     A.U. after   12 cycles
 SCF Done:  E(RM062X) =  -1115.39156625     A.U. after   11 cycles
 SCF Done:  E(RM062X) =  -1115.39156625     A.U. after   11 cycles
 Optimization completed.
    -- Stationary point found.
 Normal termination of Gaussian 09 at Tue Oct 30 16:20:40 2018.
 Gaussian 09:  ES64L-G09RevE.01 30-Nov-2015

 ----------------------------------------------------------------------
 # M062X/Gen 6D SCF=Tight INT(grid=ultrafine) OPT IOP(2/17=4) Freq=Nora
 man maxdisk=2684354560 geom=check guess=read IOP(2/17=4)
 ----------------------------------------------------------------------

 ----------------------------
 3TMF4Nitro.M062X_6-31pGd_opt
 ----------------------------
 Structure from the checkpoint file:  "3TMF4Nitro.M062X_6-31pGd_opt.chk"
 Charge =  0 Multiplicity = 1

 SCF Done:  E(RM062X) =  -1115.39156625     A.U. after    1 cycles
 Optimization completed.
    -- Stationary point found.
 Normal termination of Gaussian 09 at Tue Oct 30 16:21:44 2018.

 ----------------------------------------------------------------------
 #N Geom=AllCheck Guess=TCheck SCRF=Check Test GenChk RM062X/ChkBas Fre
 q
 ----------------------------------------------------------------------

 Structure from the checkpoint file:  "3TMF4Nitro.M062X_6-31pGd_opt.chk"
 ----------------------------
 3TMF4Nitro.M062X_6-31pGd_opt
 ----------------------------
 Charge =  0 Multiplicity = 1

                         Standard orientation:
 ---------------------------------------------------------------------
 Center     Atomic      Atomic             Coordinates (Angstroms)
 Number     Number       Type             X           Y           Z
 ---------------------------------------------------------------------
      1          6           0       -7.426258    0.622563   -0.016846
      2          6           0       -6.263415   -0.364555    0.055536
      3          6           0       -4.924579    0.336647   -0.133326
      4          7           0       -3.829988   -0.624931   -0.061798
      5          6           0       -2.542475   -0.163029    0.022382
      6          8           0       -2.264326    1.014224    0.156908
      7          7           0       -1.587694   -1.180455   -0.025312
      8          6           0       -0.201389   -1.047318   -0.000918
      9          6           0        0.456726    0.193596    0.010184
     10          6           0        0.559560   -2.223960    0.015680
     11          6           0        1.941884   -2.166170    0.020888
     12          6           0        2.582509   -0.934396   -0.009224
     13          6           0        1.845950    0.254623   -0.003532
     14          1           0       -8.384107    0.113860    0.121334
     15          1           0       -7.452061    1.130431   -0.986698
     16          1           0       -7.337270    1.388742    0.760346
     17          1           0       -6.388090   -1.134589   -0.718660
     18          1           0       -6.262553   -0.880564    1.022951
     19          1           0       -4.761414    1.076316    0.655054
     20          1           0       -4.902559    0.875401   -1.090946
     21          1           0       -3.992099   -1.524008   -0.498323
     22          1           0       -1.930405   -2.130591    0.031700
     23          1           0       -0.123617    1.104041    0.048938
     24          1           0        0.065279   -3.191974    0.021444
     25          6           0        2.477068    1.636754    0.059900
     26          9           0        1.572218    2.548086    0.457575
     27          9           0        2.935982    2.048104   -1.125694
     28          9           0        3.480416    1.682256    0.947052
     29          7           0        4.048885   -0.964622   -0.086440
     30          8           0        4.611970   -1.911462    0.437297
     31          8           0        4.599685   -0.070529   -0.697365
     32          1           0        2.540827   -3.069406    0.038234
 ---------------------------------------------------------------------

 SCF Done:  E(RM062X) =  -1115.39156625     A.U. after    1 cycles

 The electronic state is 1-A.
 Alpha  occ. eigenvalues --  -25.30130 -25.30028 -25.29711 -19.69084 -19.68905
 Alpha  occ. eigenvalues --  -19.63971 -15.02358 -14.83739 -14.81326 -10.82017
 Alpha  occ. eigenvalues --  -10.71404 -10.64903 -10.63601 -10.61955 -10.60263
 Alpha  occ. eigenvalues --  -10.60130 -10.59879 -10.59007 -10.57147 -10.55659
 Alpha  occ. eigenvalues --   -1.46930  -1.37947  -1.37479  -1.37304  -1.20807
 Alpha  occ. eigenvalues --   -1.19240  -1.09444  -1.05887  -1.01538  -0.92588
 Alpha  occ. eigenvalues --   -0.91463  -0.90156  -0.83614  -0.81813  -0.78596
 Alpha  occ. eigenvalues --   -0.75572  -0.72415  -0.71038  -0.70878  -0.69485
 Alpha  occ. eigenvalues --   -0.69178  -0.67637  -0.66426  -0.64990  -0.63239
 Alpha  occ. eigenvalues --   -0.61798  -0.60529  -0.58291  -0.57266  -0.57152
 Alpha  occ. eigenvalues --   -0.56204  -0.55401  -0.55010  -0.54824  -0.53137
 Alpha  occ. eigenvalues --   -0.52522  -0.52282  -0.51497  -0.50843  -0.50258
 Alpha  occ. eigenvalues --   -0.49014  -0.48735  -0.47352  -0.45168  -0.44676
 Alpha  occ. eigenvalues --   -0.42892  -0.42303  -0.41488  -0.39680  -0.38581
 Alpha  occ. eigenvalues --   -0.38369  -0.37335  -0.35447  -0.34731  -0.30702
 Alpha virt. eigenvalues --   -0.05891  -0.02205  -0.02041   0.00865   0.01448
 Alpha virt. eigenvalues --    0.02006   0.02376   0.02717   0.03167   0.04230
 Alpha virt. eigenvalues --    0.04809   0.04937   0.05524   0.06070   0.06565

 Mulliken charges:
               1
     1  C   -0.716554
     2  C   -0.317987
     3  C   -0.168661
     4  N   -0.592298
     5  C    0.807972
     6  O   -0.553711
     7  N   -0.655310
     8  C    0.089522
     9  C    0.806776
    10  C   -1.436560
    11  C   -0.026927
    12  C   -1.331273
    13  C    0.461799
    14  H    0.216806
    15  H    0.215820
    16  H    0.217254
    17  H    0.203840
    18  H    0.228023
    19  H    0.245828
    20  H    0.220630
    21  H    0.388742
    22  H    0.417236
    23  H    0.315655
    24  H    0.212243
    25  C    1.626600
    26  F   -0.327548
    27  F   -0.237681
    28  F   -0.283192
    29  N   -0.244835
    30  O   -0.019202
    31  O   -0.027791
    32  H    0.264785
 Sum of Mulliken charges =   0.00000

 Dipole moment (field-independent basis, Debye):
    X=             -9.2503    Y=             -5.3752    Z=             -0.7153  Tot=             10.7225
 Quadrupole moment (field-independent basis, Debye-Ang):
   XX=           -121.7814   YY=           -110.3995   ZZ=           -117.9481
   XY=              8.3307   XZ=              3.3683   YZ=              2.2996

  Exact polarizability: 245.863  -5.603 161.277   0.101  -5.328 103.006
 Approx polarizability: 242.003   0.476 219.400  -0.046 -11.720 138.604

                      1                      2                      3
                      A                      A                      A
 Frequencies --     19.0305                28.5720                44.3809
 Red. masses --      5.9864                 3.1017                10.8600
 Frc consts  --      0.0013                 0.0015                 0.0126
 IR Inten    --      1.2956                 4.5959                 0.7465

                      4                      5                      6
                      A                      A                      A
 Frequencies --     53.6075                58.5940                72.3327
 Red. masses --      4.5394                 4.3457                 2.6443
 Frc consts  --      0.0077                 0.0088                 0.0082
 IR Inten    --      1.4513                 1.8368                 3.6443

                      7                      8                      9
                      A                      A                      A
 Frequencies --     96.7784               107.9321               129.6974
 Red. masses --     10.8986                 4.7485                 6.1736
 Frc consts  --      0.0601                 0.0326                 0.0612
 IR Inten    --      0.0760                 0.8474                 3.2612

                     10                     11                     12
                      A                      A                      A
 Frequencies --    150.4258               186.8886               191.5069
 Red. masses --      7.5038                 5.5516                 3.8283
 Frc consts  --      0.1000                 0.1142                 0.0827
 IR Inten    --      0.5759                 1.2432                 1.1386

                     13                     14                     15
                      A                      A                      A
 Frequencies --    221.8395               238.4087               242.3112
 Red. masses --      6.9747                 1.5734                 2.1644
 Frc consts  --      0.2022                 0.0527                 0.0749
 IR Inten    --      0.0823                 3.0762                 6.8360

                     16                     17                     18
                      A                      A                      A
 Frequencies --    272.2880               292.9810               327.5798
 Red. masses --      9.8974                 6.0475                 5.9846
 Frc consts  --      0.4323                 0.3058                 0.3784
 IR Inten    --      1.2769                 3.6643                 8.8199

                     19                     20                     21
                      A                      A                      A
 Frequencies --    337.7160               355.4494               377.2300
 Red. masses --      3.1477                 1.7441                 8.5033
 Frc consts  --      0.2115                 0.1298                 0.7129
 IR Inten    --     52.6484                30.8746                 4.3035

                     22                     23                     24
                      A                      A                      A
 Frequencies --    404.9217               410.5746               461.2916
 Red. masses --      6.6397                 4.6365                 3.8817
 Frc consts  --      0.6414                 0.4605                 0.4867
 IR Inten    --      2.2682                 4.2442                 3.7945

                     25                     26                     27
                      A                      A                      A
 Frequencies --    498.1086               519.9259               529.2914
 Red. masses --      1.4003                 3.4447                12.8845
 Frc consts  --      0.2047                 0.5486                 2.1267
 IR Inten    --     95.4296                51.3478                 4.5220

                     28                     29                     30
                      A                      A                      A
 Frequencies --    561.4324               614.6778               654.2707
 Red. masses --      6.9871                 6.0240                 4.8659
 Frc consts  --      1.2976                 1.3410                 1.2272
 IR Inten    --      5.2224                 4.3726                 2.6839

                     31                     32                     33
                      A                      A                      A
 Frequencies --    667.6733               693.1864               722.9001
 Red. masses --      8.0853                 7.4808                 6.2341
 Frc consts  --      2.1236                 2.1179                 1.9195
 IR Inten    --      8.1250                11.1606                 7.7903

                     34                     35                     36
                      A                      A                      A
 Frequencies --    753.2518               766.3951               776.7268
 Red. masses --      1.9855                 1.8891                 8.0390
 Frc consts  --      0.6638                 0.6538                 2.8575
 IR Inten    --     13.3212                 3.7523                 5.9127

                     37                     38                     39
                      A                      A                      A
 Frequencies --    784.7435               799.8040               861.6394
 Red. masses --      4.9441                 5.9743                 1.7139
 Frc consts  --      1.7939                 2.2517                 0.7497
 IR Inten    --     17.7673                15.4213                26.2082

                     40                     41                     42
                      A                      A                      A
 Frequencies --    876.2004               900.5564               929.1291
 Red. masses --     10.0781                 1.1856                 1.8017
 Frc consts  --      4.5587                 0.5665                 0.9164
 IR Inten    --     33.1334                 1.7813                 0.0704

                     43                     44                     45
                      A                      A                      A
 Frequencies --    950.5291               962.0645               991.4885
 Red. masses --      1.3796                 4.8632                 1.3460
 Frc consts  --      0.7344                 2.6520                 0.7796
 IR Inten    --     20.6674                31.3395                 3.2324

                     46                     47                     48
                      A                      A                      A
 Frequencies --   1045.0748              1070.7333              1080.0322
 Red. masses --      4.2161                 4.4550                 2.6272
 Frc consts  --      2.7131                 3.0092                 1.8056
 IR Inten    --      5.7879                54.4154                 5.7922

                     49                     50                     51
                      A                      A                      A
 Frequencies --   1145.6692              1164.5939              1168.0645
 Red. masses --      2.8711                 2.5678                 1.7032
 Frc consts  --      2.2203                 2.0519                 1.3691
 IR Inten    --      8.6836                 3.5553                23.7669

                     52                     53                     54
                      A                      A                      A
 Frequencies --   1181.4098              1206.3850              1235.0637
 Red. masses --      1.7277                 2.2921                 2.1755
 Frc consts  --      1.4208                 1.9654                 1.9552
 IR Inten    --      0.5543                36.4101               594.6124

                     55                     56                     57
                      A                      A                      A
 Frequencies --   1244.2350              1252.6179              1281.9399
 Red. masses --      2.9974                 9.6133                 1.3682
 Frc consts  --      2.7340                 8.8871                 1.3247
 IR Inten    --     47.1865               227.7709               106.3190

                     58                     59                     60
                      A                      A                      A
 Frequencies --   1292.5565              1308.5422              1327.4680
 Red. masses --      2.3908                 1.5129                 1.2208
 Frc consts  --      2.3534                 1.5262                 1.2675
 IR Inten    --     87.5975                25.1658                29.4396

                     61                     62                     63
                      A                      A                      A
 Frequencies --   1337.4065              1350.9894              1384.9330
 Red. masses --      2.2493                 1.7239                 4.4023
 Frc consts  --      2.3704                 1.8539                 4.9750
 IR Inten    --     86.6865                37.2411               184.3194

                     64                     65                     66
                      A                      A                      A
 Frequencies --   1426.6389              1438.8365              1474.1089
 Red. masses --      1.5325                 1.3099                 9.0274
 Frc consts  --      1.8377                 1.5978                11.5577
 IR Inten    --      1.2536                 2.5939               853.3357

                     67                     68                     69
                      A                      A                      A
 Frequencies --   1482.6891              1516.7529              1524.8126
 Red. masses --      5.8701                 1.0595                 1.0525
 Frc consts  --      7.6031                 1.4361                 1.4419
 IR Inten    --      6.4121                 6.4730                17.6411

                     70                     71                     72
                      A                      A                      A
 Frequencies --   1527.8056              1532.9161              1540.6961
 Red. masses --      1.0746                 1.6158                 1.1800
 Frc consts  --      1.4778                 2.2371                 1.6503
 IR Inten    --      2.2234               104.4689                40.9187

                     73                     74                     75
                      A                      A                      A
 Frequencies --   1555.8160              1595.8014              1669.6581
 Red. masses --      2.3879                 2.5895                 6.8877
 Frc consts  --      3.4056                 3.8853                11.3131
 IR Inten    --    243.6704               688.3986               144.7280

                     76                     77                     78
                      A                      A                      A
 Frequencies --   1692.5787              1729.2832              1831.1804
 Red. masses --      6.4595                12.3499                 8.8077
 Frc consts  --     10.9031                21.7593                17.4011
 IR Inten    --     76.1183               285.6832               277.4637

                     79                     80                     81
                      A                      A                      A
 Frequencies --   3058.0573              3060.6357              3081.7395
 Red. masses --      1.0639                 1.0719                 1.0365
 Frc consts  --      5.8620                 5.9158                 5.7995
 IR Inten    --     17.8186                37.8369                28.8282

                     82                     83                     84
                      A                      A                      A
 Frequencies --   3107.7168              3146.1136              3153.8780
 Red. masses --      1.0960                 1.0972                 1.1021
 Frc consts  --      6.2368                 6.3985                 6.4588
 IR Inten    --     15.6405                 0.8057                45.8784

                     85                     86                     87
                      A                      A                      A
 Frequencies --   3162.8155              3218.5922              3267.6779
 Red. masses --      1.1019                 1.0912                 1.0937
 Frc consts  --      6.4945                 6.6602                 6.8804
 IR Inten    --     26.6390                 8.8402                 3.0698

                     88                     89                     90
                      A                      A                      A
 Frequencies --   3312.9281              3624.8487              3637.6505
 Red. masses --      1.0910                 1.0776                 1.0771
 Frc consts  --      7.0552                 8.3420                 8.3975
 IR Inten    --     29.8601                19.0319                42.9595

 - Thermochemistry -
 -------------------
 Temperature   298.150 Kelvin.  Pressure   1.00000 Atm.
 Atom     1 has atomic number  6 and mass  12.00000

 Molecular mass:   291.08308 amu.
 Principal axes and moments of inertia in atomic units:
                           1         2         3
     Eigenvalues --  2309.16457********************
           X            0.99996  -0.00872   0.00071
           Y            0.00872   0.99996  -0.00050
           Z           -0.00071   0.00051   1.00000
 This molecule is an asymmetric top.
 Rotational symmetry number  1.
 Warning -- assumption of classical behavior for rotation
           may cause significant error
 Rotational temperatures (Kelvin)      0.03751     0.00637     0.00560
 Rotational constants (GHZ):           0.78156     0.13279     0.11675
 Zero-point vibrational energy     630110.7 (Joules/Mol)
                                  150.60006 (Kcal/Mol)
 Warning -- explicit consideration of  29 degrees of freedom as
           vibrations may cause significant error
 Vibrational temperatures:     27.38    41.11    63.85    77.13    84.30
          (Kelvin)            104.07   139.24   155.29   186.61   216.43
                              268.89   275.54   319.18   343.02   348.63
                              391.76   421.53   471.31   485.90   511.41
                              542.75   582.59   590.72   663.69   716.67
                              748.06   761.53   807.77   884.38   941.35
                              960.63   997.34  1040.09  1083.76  1102.67
                             1117.54  1129.07  1150.74  1239.71  1260.66
                             1295.70  1336.81  1367.60  1384.19  1426.53
                             1503.63  1540.54  1553.92  1648.36  1675.59
                             1680.58  1699.78  1735.72  1776.98  1790.17
                             1802.24  1844.42  1859.70  1882.70  1909.93
                             1924.23  1943.77  1992.61  2052.61  2070.16
                             2120.91  2133.26  2182.27  2193.86  2198.17
                             2205.52  2216.72  2238.47  2296.00  2402.26
                             2435.24  2488.05  2634.66  4399.86  4403.57
                             4433.93  4471.31  4526.55  4537.72  4550.58
                             4630.83  4701.45  4766.56  5215.34  5233.76

 Zero-point correction=                           0.239996 (Hartree/Particle)
 Thermal correction to Energy=                    0.259131
 Thermal correction to Enthalpy=                  0.260075
 Thermal correction to Gibbs Free Energy=         0.189630
 Sum of electronic and zero-point Energies=          -1115.151570
 Sum of electronic and thermal Energies=             -1115.132435
 Sum of electronic and thermal Enthalpies=           -1115.131491
 Sum of electronic and thermal Free Energies=        -1115.201936

                     E (Thermal)             CV                S
                      KCal/Mol        Cal/Mol-Kelvin    Cal/Mol-Kelvin
 Total                  162.607             69.007            148.263
 Electronic               0.000              0.000              0.000
 Translational            0.889              2.981             42.903
 Rotational               0.889              2.981             34.538
 Vibrational            160.830             63.045             70.822
 Vibration     1          0.593              1.986              6.733
 Vibration     2          0.593              1.984              5.926
 Vibration     3          0.595              1.980              5.053
 Vibration     4          0.596              1.976              4.680
 Vibration     5          0.596              1.974              4.504
 Vibration     6          0.598              1.967              4.089
 Vibration     7          0.603              1.951              3.518
 Vibration     8          0.606              1.943              3.306
 Vibration     9          0.612              1.924              2.951
 Vibration    10          0.618              1.902              2.667
 Vibration    11          0.632              1.858              2.258
 Vibration    12          0.634              1.852              2.213
 Vibration    13          0.648              1.808              1.944
 Vibration    14          0.656              1.782              1.815
 Vibration    15          0.659              1.775              1.786
 Vibration    16          0.675              1.724              1.582
 Vibration    17          0.688              1.687              1.457
 Vibration    18          0.711              1.620              1.272
 Vibration    19          0.718              1.600              1.223
 Vibration    20          0.731              1.564              1.142
 Vibration    21          0.748              1.519              1.050
 Vibration    22          0.770              1.460              0.945
 Vibration    23          0.775              1.447              0.925
 Vibration    24          0.819              1.336              0.762
 Vibration    25          0.854              1.254              0.663
 Vibration    26          0.875              1.206              0.610
 Vibration    27          0.884              1.185              0.589
 Vibration    28          0.917              1.115              0.521
 Vibration    29          0.974              1.001              0.425

 Optimization completed.
    -- Stationary point found.
 Normal termination of Gaussian 09 at Tue Oct 30 17:15:17 2018.
