 Gaussian 09, Revision E.01,

 ----------------------------------------------------------------------
 # M062X/Gen 6D SCF=Tight INT(grid=ultrafine) OPT IOP(2/17=4) maxdisk=2
 684354560
 ----------------------------------------------------------------------

 -------------------------------
 3TMF4Nitro_a1.M062X_6-31pGd_opt
 -------------------------------
 Symbolic Z-matrix:
 Charge = -1 Multiplicity = 1

 SCF Done:  E(RM062X) =  -1114.86595462     A.U. after   17 cycles
 SCF Done:  E(RM062X) =  -1114.86814497     A.U. after   16 cycles
 SCF Done:  E(RM062X) =  -1114.86512147     A.U. after   16 cycles
 SCF Done:  E(RM062X) =  -1114.86854970     A.U. after   13 cycles
 SCF Done:  E(RM062X) =  -1114.86806732     A.U. after   16 cycles
 SCF Done:  E(RM062X) =  -1114.86888047     A.U. after   13 cycles
 SCF Done:  E(RM062X) =  -1114.86923269     A.U. after   16 cycles
 SCF Done:  E(RM062X) =  -1114.86932752     A.U. after   16 cycles
 SCF Done:  E(RM062X) =  -1114.86941704     A.U. after   15 cycles
 SCF Done:  E(RM062X) =  -1114.86950522     A.U. after   13 cycles
 SCF Done:  E(RM062X) =  -1114.87148018     A.U. after   14 cycles
 SCF Done:  E(RM062X) =  -1114.87148465     A.U. after   13 cycles
 SCF Done:  E(RM062X) =  -1114.87149029     A.U. after   14 cycles
 SCF Done:  E(RM062X) =  -1114.87149394     A.U. after   14 cycles
 SCF Done:  E(RM062X) =  -1114.87149594     A.U. after   12 cycles
 SCF Done:  E(RM062X) =  -1114.87149637     A.U. after   12 cycles
 SCF Done:  E(RM062X) =  -1114.87149640     A.U. after   11 cycles
 SCF Done:  E(RM062X) =  -1114.87149642     A.U. after   10 cycles
 Optimization completed.
    -- Stationary point found.
 Normal termination of Gaussian 09 at Mon Nov  5 23:54:35 2018.
 Gaussian 09:  ES64L-G09RevE.01 30-Nov-2015

 ----------------------------------------------------------------------
 # M062X/Gen 6D SCF=Tight INT(grid=ultrafine) OPT IOP(2/17=4) Freq=Nora
 man maxdisk=2684354560 geom=check guess=read IOP(2/17=4)
 ----------------------------------------------------------------------

 -------------------------------
 3TMF4Nitro_a1.M062X_6-31pGd_opt
 -------------------------------
 Structure from the checkpoint file:  "3TMF4Nitro_a1.M062X_6-31pGd_opt.chk"
 Charge = -1 Multiplicity = 1

 SCF Done:  E(RM062X) =  -1114.87149642     A.U. after    1 cycles
 Optimization completed.
    -- Stationary point found.
 Normal termination of Gaussian 09 at Mon Nov  5 23:55:40 2018.

 ----------------------------------------------------------------------
 #N Geom=AllCheck Guess=TCheck SCRF=Check Test GenChk RM062X/ChkBas Fre
 q
 ----------------------------------------------------------------------

 Structure from the checkpoint file:  "3TMF4Nitro_a1.M062X_6-31pGd_opt.chk"
 -------------------------------
 3TMF4Nitro_a1.M062X_6-31pGd_opt
 -------------------------------
 Charge = -1 Multiplicity = 1

                         Standard orientation:
 ---------------------------------------------------------------------
 Center     Atomic      Atomic             Coordinates (Angstroms)
 Number     Number       Type             X           Y           Z
 ---------------------------------------------------------------------
      1          6           0       -6.530221    1.128921   -0.905524
      2          6           0       -5.314555    0.205465   -0.863076
      3          6           0       -4.985305   -0.238592    0.565279
      4          7           0       -3.816985   -1.079709    0.668501
      5          6           0       -2.546457   -0.527725    0.502069
      6          8           0       -2.415328    0.703544    0.567371
      7          7           0       -1.613751   -1.503245    0.296729
      8          6           0       -0.312309   -1.216202    0.156382
      9          6           0        0.315063    0.078995    0.188673
     10          6           0        0.567163   -2.319918   -0.064313
     11          6           0        1.921556   -2.156463   -0.206625
     12          6           0        2.513585   -0.884722   -0.135630
     13          6           0        1.680050    0.246089    0.054306
     14          1           0       -6.767197    1.440897   -1.928154
     15          1           0       -6.348500    2.033237   -0.313536
     16          1           0       -7.418205    0.633937   -0.492219
     17          1           0       -4.433083    0.715177   -1.267330
     18          1           0       -5.491489   -0.682626   -1.485017
     19          1           0       -5.840099   -0.777069    0.996847
     20          1           0       -4.805042    0.647957    1.182277
     21          1           0       -3.884914   -2.044834    0.374916
     22          1           0       -0.323665    0.941035    0.309164
     23          1           0        0.121380   -3.309118   -0.105103
     24          6           0        2.182240    1.678734    0.054069
     25          9           0        1.159506    2.559221    0.004534
     26          9           0        2.945082    1.960277   -1.019070
     27          9           0        2.877644    2.005462    1.156732
     28          7           0        3.944667   -0.827755   -0.221980
     29          8           0        4.548377   -1.831979   -0.608828
     30          8           0        4.521578    0.202725    0.108029
     31          1           0        2.571326   -3.010097   -0.360601
 ---------------------------------------------------------------------

 SCF Done:  E(RM062X) =  -1114.87149642     A.U. after    1 cycles

 The electronic state is 1-A.
 Alpha  occ. eigenvalues --  -25.18389 -25.18285 -25.18122 -19.55499 -19.55237
 Alpha  occ. eigenvalues --  -19.47680 -14.88955 -14.65318 -14.60116 -10.69912
 Alpha  occ. eigenvalues --  -10.53532 -10.48693 -10.48145 -10.48100 -10.47611
 Alpha  occ. eigenvalues --  -10.45881 -10.45609 -10.45064 -10.43744 -10.43642
 Alpha  occ. eigenvalues --   -1.35019  -1.25655  -1.25436  -1.23815  -1.04917
 Alpha  occ. eigenvalues --   -1.03007  -0.90592  -0.89062  -0.85628  -0.78705
 Alpha  occ. eigenvalues --   -0.77597  -0.76136  -0.69729  -0.68392  -0.64627
 Alpha  occ. eigenvalues --   -0.60552  -0.59275  -0.58384  -0.57402  -0.55993
 Alpha  occ. eigenvalues --   -0.54938  -0.52669  -0.50528  -0.49938  -0.47860
 Alpha  occ. eigenvalues --   -0.47678  -0.45579  -0.44997  -0.44008  -0.43508
 Alpha  occ. eigenvalues --   -0.41877  -0.41374  -0.40689  -0.40401  -0.39392
 Alpha  occ. eigenvalues --   -0.39233  -0.38440  -0.37426  -0.36309  -0.35437
 Alpha  occ. eigenvalues --   -0.34884  -0.34221  -0.32670  -0.31690  -0.30254
 Alpha  occ. eigenvalues --   -0.29914  -0.27085  -0.25540  -0.25353  -0.24335
 Alpha  occ. eigenvalues --   -0.23429  -0.21208  -0.19381  -0.17903  -0.12333
 Alpha virt. eigenvalues --    0.06563   0.09883   0.10827   0.11412   0.11895
 Alpha virt. eigenvalues --    0.12617   0.12923   0.13595   0.14074   0.14791
 Alpha virt. eigenvalues --    0.14952   0.15344   0.15741   0.15870   0.16254

 Mulliken charges:
               1
     1  C   -0.765593
     2  C   -0.205444
     3  C   -0.225278
     4  N   -0.548474
     5  C    0.515046
     6  O   -0.611553
     7  N   -0.456967
     8  C    0.049339
     9  C    0.558167
    10  C   -1.073155
    11  C   -0.080217
    12  C   -1.043924
    13  C    0.134405
    14  H    0.196208
    15  H    0.211179
    16  H    0.191706
    17  H    0.243460
    18  H    0.190060
    19  H    0.179270
    20  H    0.239843
    21  H    0.400579
    22  H    0.297466
    23  H    0.198233
    24  C    1.601261
    25  F   -0.355020
    26  F   -0.292480
    27  F   -0.266756
    28  N   -0.368026
    29  O   -0.076501
    30  O   -0.070537
    31  H    0.233701
 Sum of Mulliken charges =  -1.00000

 Dipole moment (field-independent basis, Debye):
    X=             -5.6100    Y=             -0.4623    Z=             -1.0028  Tot=              5.7176
 Quadrupole moment (field-independent basis, Debye-Ang):
   XX=           -178.4907   YY=           -130.2516   ZZ=           -122.7340
   XY=              4.3470   XZ=              5.8458   YZ=             -1.0541

  Exact polarizability: 335.985  -7.261 168.588 -15.769   6.575 112.036
 Approx polarizability: 350.220   3.372 223.139 -22.236  13.741 145.324

                      1                      2                      3
                      A                      A                      A
 Frequencies --     17.6619                22.4961                34.3736
 Red. masses --      4.6077                 7.3043                 8.6930
 Frc consts  --      0.0008                 0.0022                 0.0061
 IR Inten    --      2.0440                 0.1464                 2.5509

                      4                      5                      6
                      A                      A                      A
 Frequencies --     59.5550                65.4453                94.4343
 Red. masses --      4.3221                 7.6282                 1.7960
 Frc consts  --      0.0090                 0.0193                 0.0094
 IR Inten    --      2.5485                 4.2783                 0.6538

                      7                      8                      9
                      A                      A                      A
 Frequencies --    103.1203               108.2622               146.9811
 Red. masses --      7.0352                 6.6168                 6.3182
 Frc consts  --      0.0441                 0.0457                 0.0804
 IR Inten    --      1.0138                 0.8442                 2.6898

                     10                     11                     12
                      A                      A                      A
 Frequencies --    173.9595               197.4865               225.1650
 Red. masses --     11.3934                11.3073                 3.7049
 Frc consts  --      0.2031                 0.2598                 0.1107
 IR Inten    --      1.8398                 0.5126                 4.3602

                     13                     14                     15
                      A                      A                      A
 Frequencies --    234.6276               248.3062               270.6375
 Red. masses --      1.3898                 4.0544                 8.0321
 Frc consts  --      0.0451                 0.1473                 0.3466
 IR Inten    --      1.4644                 1.6395                 1.1278

                     16                     17                     18
                      A                      A                      A
 Frequencies --    286.4486               304.4450               332.0746
 Red. masses --      7.2096                 3.8234                 4.4219
 Frc consts  --      0.3485                 0.2088                 0.2873
 IR Inten    --      1.7892                27.5396                 2.7051

                     19                     20                     21
                      A                      A                      A
 Frequencies --    339.3648               379.6698               417.5984
 Red. masses --      5.6725                12.4395                 7.2890
 Frc consts  --      0.3849                 1.0565                 0.7489
 IR Inten    --      1.6516                 1.1864                 1.3416

                     22                     23                     24
                      A                      A                      A
 Frequencies --    440.2736               468.2539               513.9041
 Red. masses --      7.1462                 3.7170                 1.5234
 Frc consts  --      0.8161                 0.4802                 0.2370
 IR Inten    --     22.9189                 2.7173               122.3063

                     25                     26                     27
                      A                      A                      A
 Frequencies --    528.6071               541.2414               561.4197
 Red. masses --      4.9457                 9.8348                 4.9589
 Frc consts  --      0.8142                 1.6975                 0.9209
 IR Inten    --     10.6301                 2.1325                19.3674

                     28                     29                     30
                      A                      A                      A
 Frequencies --    614.9312               662.2434               676.3023
 Red. masses --      7.3215                 6.7988                 4.3348
 Frc consts  --      1.6312                 1.7568                 1.1682
 IR Inten    --     11.2364                 4.3222                 6.2871

                     31                     32                     33
                      A                      A                      A
 Frequencies --    693.6875               712.7969               723.3514
 Red. masses --      5.8728                 5.0990                 1.5628
 Frc consts  --      1.6650                 1.5264                 0.4818
 IR Inten    --     10.5809                 6.4773                 3.2816

                     34                     35                     36
                      A                      A                      A
 Frequencies --    773.8302               776.7570               778.5499
 Red. masses --      5.4544                 4.3602                 2.9321
 Frc consts  --      1.9244                 1.5500                 1.0471
 IR Inten    --      8.9366                 7.3721                32.7988

                     37                     38                     39
                      A                      A                      A
 Frequencies --    807.3431               858.2342               872.6307
 Red. masses --      9.2569                 1.6199                10.0422
 Frc consts  --      3.5550                 0.7030                 4.5055
 IR Inten    --     14.9522                22.7690                 8.4917

                     40                     41                     42
                      A                      A                      A
 Frequencies --    891.0585               902.0920               936.6199
 Red. masses --      1.5234                 1.7088                 2.3569
 Frc consts  --      0.7126                 0.8193                 1.2182
 IR Inten    --      6.4480                 9.6232                56.1119

                     43                     44                     45
                      A                      A                      A
 Frequencies --    939.8070              1001.2884              1005.7383
 Red. masses --      2.1529                 1.2871                 3.2155
 Frc consts  --      1.1204                 0.7603                 1.9163
 IR Inten    --     35.1740                 1.6342                51.2384

                     46                     47                     48
                      A                      A                      A
 Frequencies --   1052.6963              1064.5686              1133.1143
 Red. masses --      4.1680                 2.7174                 2.1460
 Frc consts  --      2.7214                 1.8145                 1.6234
 IR Inten    --    259.9477                 1.5479                17.9269

                     49                     50                     51
                      A                      A                      A
 Frequencies --   1150.8054              1164.4984              1191.4990
 Red. masses --      1.5112                 1.8498                 2.7999
 Frc consts  --      1.1792                 1.4780                 2.3420
 IR Inten    --    274.9543                91.8637                 9.1270

                     52                     53                     54
                      A                      A                      A
 Frequencies --   1196.8958              1217.3106              1219.9631
 Red. masses --      5.2666                 3.5507                 8.2244
 Frc consts  --      4.4452                 3.1000                 7.2118
 IR Inten    --    429.5080                48.7953               219.9324

                     55                     56                     57
                      A                      A                      A
 Frequencies --   1250.0130              1290.2141              1293.2446
 Red. masses --      2.3140                 1.5497                 1.4218
 Frc consts  --      2.1303                 1.5199                 1.4010
 IR Inten    --    729.8651               529.1950               128.3642

                     58                     59                     60
                      A                      A                      A
 Frequencies --   1323.0107              1334.8559              1348.2881
 Red. masses --      4.0116                 1.4318                 2.4161
 Frc consts  --      4.1371                 1.5032                 2.5878
 IR Inten    --    437.3441                83.5412               190.4791

                     61                     62                     63
                      A                      A                      A
 Frequencies --   1350.9035              1398.2145              1420.3431
 Red. masses --      1.4555                 5.1557                 1.4832
 Frc consts  --      1.5650                 5.9386                 1.7630
 IR Inten    --    128.5049              2577.3583                 5.5401

                     64                     65                     66
                      A                      A                      A
 Frequencies --   1424.8450              1453.0967              1488.2563
 Red. masses --      1.3203                 3.5306                 1.1542
 Frc consts  --      1.5793                 4.3923                 1.5062
 IR Inten    --     11.9073                25.4060                25.0234

                     67                     68                     69
                      A                      A                      A
 Frequencies --   1509.3821              1511.6046              1517.5817
 Red. masses --      4.9417                 1.1055                 1.7403
 Frc consts  --      6.6332                 1.4883                 2.3614
 IR Inten    --     25.0562                 1.9822               633.5671

                     70                     71                     72
                      A                      A                      A
 Frequencies --   1525.3766              1528.6130              1579.3276
 Red. masses --      1.1639                 1.0657                 4.9111
 Frc consts  --      1.5957                 1.4671                 7.2172
 IR Inten    --    145.2555                 8.0272               446.0308

                     73                     74                     75
                      A                      A                      A
 Frequencies --   1593.3454              1653.0485              1660.6327
 Red. masses --      9.0183                 6.4028                11.9011
 Frc consts  --     13.4894                10.3084                19.3367
 IR Inten    --     83.2855               430.1109               369.4304

                     76                     77                     78
                      A                      A                      A
 Frequencies --   1718.6695              3057.5094              3061.4579
 Red. masses --      8.4914                 1.0626                 1.0409
 Frc consts  --     14.7779                 5.8527                 5.7481
 IR Inten    --    210.9039                56.9457               106.5348

                     79                     80                     81
                      A                      A                      A
 Frequencies --   3062.2366              3113.5641              3126.4062
 Red. masses --      1.0677                 1.0939                 1.0966
 Frc consts  --      5.8991                 6.2483                 6.3153
 IR Inten    --     31.2338                 8.2011                12.5591

                     82                     83                     84
                      A                      A                      A
 Frequencies --   3137.7054              3141.6848              3229.5825
 Red. masses --      1.1009                 1.1032                 1.0895
 Frc consts  --      6.3861                 6.4157                 6.6951
 IR Inten    --     38.5738                60.3918                10.3653

                     85                     86                     87
                      A                      A                      A
 Frequencies --   3260.8527              3310.6472              3649.1638
 Red. masses --      1.0932                 1.0900                 1.0769
 Frc consts  --      6.8487                 7.0392                 8.4492
 IR Inten    --      2.5799                18.7017                19.6862

 - Thermochemistry -
 -------------------
 Temperature   298.150 Kelvin.  Pressure   1.00000 Atm.
 Atom     1 has atomic number  6 and mass  12.00000

 Molecular mass:   290.07525 amu.
 Principal axes and moments of inertia in atomic units:
                           1         2         3
     Eigenvalues --  2610.73372********************
           X            0.99988  -0.01457   0.00593
           Y            0.01460   0.99988  -0.00587
           Z           -0.00584   0.00595   0.99997
 This molecule is an asymmetric top.
 Rotational symmetry number  1.
 Warning -- assumption of classical behavior for rotation
           may cause significant error
 Rotational temperatures (Kelvin)      0.03318     0.00720     0.00623
 Rotational constants (GHZ):           0.69128     0.15005     0.12977
 Zero-point vibrational energy     594891.6 (Joules/Mol)
                                  142.18250 (Kcal/Mol)
 Warning -- explicit consideration of  28 degrees of freedom as
           vibrations may cause significant error
 Vibrational temperatures:     25.41    32.37    49.46    85.69    94.16
          (Kelvin)            135.87   148.37   155.76   211.47   250.29
                              284.14   323.96   337.58   357.26   389.39
                              412.14   438.03   477.78   488.27   546.26
                              600.83   633.45   673.71   739.39   760.55
                              778.72   807.76   884.75   952.82   973.05
                              998.06  1025.55  1040.74  1113.37  1117.58
                             1120.16  1161.59  1234.81  1255.52  1282.03
                             1297.91  1347.59  1352.17  1440.63  1447.03
                             1514.59  1531.67  1630.30  1655.75  1675.45
                             1714.30  1722.06  1751.44  1755.25  1798.49
                             1856.33  1860.69  1903.51  1920.56  1939.88
                             1943.65  2011.72  2043.55  2050.03  2090.68
                             2141.27  2171.66  2174.86  2183.46  2194.67
                             2199.33  2272.30  2292.47  2378.37  2389.28
                             2472.78  4399.07  4404.75  4405.87  4479.72
                             4498.20  4514.45  4520.18  4646.64  4691.63
                             4763.28  5250.33

 Zero-point correction=                           0.226582 (Hartree/Particle)
 Thermal correction to Energy=                    0.245022
 Thermal correction to Enthalpy=                  0.245966
 Thermal correction to Gibbs Free Energy=         0.176872
 Sum of electronic and zero-point Energies=          -1114.644914
 Sum of electronic and thermal Energies=             -1114.626474
 Sum of electronic and thermal Enthalpies=           -1114.625530
 Sum of electronic and thermal Free Energies=        -1114.694624

                     E (Thermal)             CV                S
                      KCal/Mol        Cal/Mol-Kelvin    Cal/Mol-Kelvin
 Total                  153.754             67.194            145.420
 Electronic               0.000              0.000              0.000
 Translational            0.889              2.981             42.893
 Rotational               0.889              2.981             34.434
 Vibrational            151.976             61.232             68.094
 Vibration     1          0.593              1.986              6.881
 Vibration     2          0.593              1.985              6.401
 Vibration     3          0.594              1.983              5.560
 Vibration     4          0.597              1.974              4.472
 Vibration     5          0.597              1.971              4.286
 Vibration     6          0.603              1.953              3.566
 Vibration     7          0.605              1.947              3.394
 Vibration     8          0.606              1.943              3.300
 Vibration     9          0.617              1.906              2.711
 Vibration    10          0.627              1.875              2.392
 Vibration    11          0.637              1.843              2.156
 Vibration    12          0.650              1.803              1.917
 Vibration    13          0.654              1.788              1.843
 Vibration    14          0.662              1.766              1.743
 Vibration    15          0.674              1.727              1.592
 Vibration    16          0.684              1.699              1.495
 Vibration    17          0.695              1.665              1.392
 Vibration    18          0.714              1.611              1.250
 Vibration    19          0.719              1.597              1.215
 Vibration    20          0.750              1.514              1.040
 Vibration    21          0.781              1.432              0.900
 Vibration    22          0.800              1.382              0.826
 Vibration    23          0.825              1.320              0.742
 Vibration    24          0.869              1.219              0.624
 Vibration    25          0.884              1.187              0.590
 Vibration    26          0.896              1.159              0.563
 Vibration    27          0.917              1.115              0.521
 Vibration    28          0.974              1.000              0.425

 Optimization completed.
    -- Stationary point found.
 Normal termination of Gaussian 09 at Tue Nov  6 00:51:16 2018.
