 Gaussian 09, Revision E.01,

 ----------------------------------------------------------------------
 # M062X/Gen 6D SCF=Tight INT(grid=ultrafine) OPT IOP(2/17=4) SCRF=(SMD
 ,Solvent=h2o) maxdisk=2684354560
 ----------------------------------------------------------------------

 -------------------------------------
 3TMF4Nitro_a1.M062X_6-31pGd_opt_water
 -------------------------------------
 Symbolic Z-matrix:
 Charge = -1 Multiplicity = 1

 SCF Done:  E(RM062X) =  -1114.90906052     A.U. after   16 cycles
 SCF Done:  E(RM062X) =  -1114.93909603     A.U. after   15 cycles
 SCF Done:  E(RM062X) =  -1114.93970095     A.U. after   16 cycles
 SCF Done:  E(RM062X) =  -1114.94205992     A.U. after   15 cycles
 SCF Done:  E(RM062X) =  -1114.94340252     A.U. after   14 cycles
 SCF Done:  E(RM062X) =  -1114.94345648     A.U. after   13 cycles
 SCF Done:  E(RM062X) =  -1114.94284314     A.U. after   15 cycles
 SCF Done:  E(RM062X) =  -1114.94359020     A.U. after   10 cycles
 SCF Done:  E(RM062X) =  -1114.94370305     A.U. after   14 cycles
 SCF Done:  E(RM062X) =  -1114.94353228     A.U. after   13 cycles
 SCF Done:  E(RM062X) =  -1114.94464055     A.U. after   13 cycles
 SCF Done:  E(RM062X) =  -1114.94460774     A.U. after   15 cycles
 SCF Done:  E(RM062X) =  -1114.94464705     A.U. after   14 cycles
 SCF Done:  E(RM062X) =  -1114.94464953     A.U. after   12 cycles
 SCF Done:  E(RM062X) =  -1114.94465028     A.U. after   12 cycles
 SCF Done:  E(RM062X) =  -1114.94465069     A.U. after   12 cycles
 SCF Done:  E(RM062X) =  -1114.94465097     A.U. after   10 cycles
 SCF Done:  E(RM062X) =  -1114.94465104     A.U. after   11 cycles
 Optimization completed.
    -- Stationary point found.
 Normal termination of Gaussian 09 at Tue Oct 30 15:18:49 2018.
 Gaussian 09:  ES64L-G09RevE.01 30-Nov-2015

 ----------------------------------------------------------------------
 # M062X/Gen 6D SCF=Tight INT(grid=ultrafine) OPT IOP(2/17=4) SCRF=(SMD
 ,Solvent=h2o) Freq=Noraman maxdisk=2684354560 geom=check guess=read IO
 P(2/17=4)
 ----------------------------------------------------------------------

 -------------------------------------
 3TMF4Nitro_a1.M062X_6-31pGd_opt_water
 -------------------------------------
 Structure from the checkpoint file:  "3TMF4Nitro_a1.M062X_6-31pGd_opt_water.chk"
 Charge = -1 Multiplicity = 1

 SCF Done:  E(RM062X) =  -1114.94465104     A.U. after    1 cycles
 Optimization completed.
    -- Stationary point found.
 Normal termination of Gaussian 09 at Tue Oct 30 15:20:05 2018.

 ----------------------------------------------------------------------
 #N Geom=AllCheck Guess=TCheck SCRF=Check Test GenChk RM062X/ChkBas Fre
 q
 ----------------------------------------------------------------------

 Structure from the checkpoint file:  "3TMF4Nitro_a1.M062X_6-31pGd_opt_water.chk"
 -------------------------------------
 3TMF4Nitro_a1.M062X_6-31pGd_opt_water
 -------------------------------------
 Charge = -1 Multiplicity = 1

                         Standard orientation:
 ---------------------------------------------------------------------
 Center     Atomic      Atomic             Coordinates (Angstroms)
 Number     Number       Type             X           Y           Z
 ---------------------------------------------------------------------
      1          6           0       -7.294616    0.644798   -0.010010
      2          6           0       -6.097524   -0.169236   -0.490660
      3          6           0       -4.819441    0.255314    0.217579
      4          7           0       -3.691468   -0.540047   -0.241872
      5          6           0       -2.441263   -0.378649    0.271998
      6          8           0       -2.200971    0.601996    1.019994
      7          7           0       -1.571908   -1.384443   -0.059043
      8          6           0       -0.249724   -1.178288   -0.031149
      9          6           0        0.399133    0.105350   -0.055254
     10          6           0        0.613169   -2.314030   -0.071412
     11          6           0        1.977407   -2.182351   -0.053452
     12          6           0        2.586825   -0.914920   -0.011221
     13          6           0        1.767159    0.245417   -0.042423
     14          1           0       -8.210555    0.340307   -0.525264
     15          1           0       -7.141688    1.713434   -0.197727
     16          1           0       -7.452661    0.511168    1.065932
     17          1           0       -5.968865   -0.044709   -1.572798
     18          1           0       -6.273869   -1.236880   -0.307687
     19          1           0       -4.940933    0.146923    1.304551
     20          1           0       -4.617991    1.313933    0.019546
     21          1           0       -3.885825   -1.419308   -0.706054
     22          1           0       -0.219931    0.988461   -0.121853
     23          1           0        0.164758   -3.302486   -0.089774
     24          6           0        2.299173    1.660991   -0.160214
     25          9           0        1.317843    2.529152   -0.478293
     26          9           0        3.220095    1.787845   -1.132746
     27          9           0        2.834930    2.130458    0.980192
     28          7           0        3.998350   -0.875270    0.107559
     29          8           0        4.648994   -1.908589   -0.098797
     30          8           0        4.551530    0.178769    0.431404
     31          1           0        2.608715   -3.063395   -0.041249
 ---------------------------------------------------------------------

 SCF Done:  E(RM062X) =  -1114.94465104     A.U. after    1 cycles

 The electronic state is 1-A.
 Alpha  occ. eigenvalues --  -25.30449 -25.30373 -25.30247 -19.68073 -19.67885
 Alpha  occ. eigenvalues --  -19.60711 -15.01487 -14.77048 -14.73084 -10.82023
 Alpha  occ. eigenvalues --  -10.66343 -10.60786 -10.60690 -10.60289 -10.57329
 Alpha  occ. eigenvalues --  -10.56957 -10.56400 -10.55270 -10.53861 -10.52794
 Alpha  occ. eigenvalues --   -1.47152  -1.37772  -1.37577  -1.36156  -1.17168
 Alpha  occ. eigenvalues --   -1.15489  -1.02516  -1.01294  -0.98061  -0.90195
 Alpha  occ. eigenvalues --   -0.88990  -0.87018  -0.81760  -0.79064  -0.75560
 Alpha  occ. eigenvalues --   -0.72591  -0.70824  -0.69535  -0.68276  -0.67712
 Alpha  occ. eigenvalues --   -0.67223  -0.64781  -0.62488  -0.62049  -0.60569
 Alpha  occ. eigenvalues --   -0.59033  -0.57642  -0.57136  -0.55276  -0.54590
 Alpha  occ. eigenvalues --   -0.53763  -0.53469  -0.53069  -0.51400  -0.51259
 Alpha  occ. eigenvalues --   -0.50796  -0.49543  -0.48327  -0.47498  -0.46439
 Alpha  occ. eigenvalues --   -0.45897  -0.44128  -0.42396  -0.41632  -0.40227
 Alpha  occ. eigenvalues --   -0.39478  -0.38935  -0.38506  -0.38319  -0.37589
 Alpha  occ. eigenvalues --   -0.35775  -0.33322  -0.31549  -0.30811  -0.24720
 Alpha virt. eigenvalues --   -0.06253   0.00765   0.02019   0.03075   0.03336
 Alpha virt. eigenvalues --    0.03629   0.04190   0.04297   0.04644   0.05139
 Alpha virt. eigenvalues --    0.05423   0.06304   0.06617   0.07321   0.07885

 Mulliken charges:
               1
     1  C   -0.744890
     2  C   -0.371192
     3  C   -0.287806
     4  N   -0.632865
     5  C    0.770180
     6  O   -0.787343
     7  N   -0.556131
     8  C    0.377962
     9  C    0.248547
    10  C   -0.900318
    11  C   -0.001771
    12  C   -1.192997
    13  C    0.193135
    14  H    0.221732
    15  H    0.220836
    16  H    0.221188
    17  H    0.231677
    18  H    0.228518
    19  H    0.223125
    20  H    0.229283
    21  H    0.463795
    22  H    0.269702
    23  H    0.252702
    24  C    1.552734
    25  F   -0.352774
    26  F   -0.298158
    27  F   -0.272711
    28  N   -0.243056
    29  O   -0.164499
    30  O   -0.177362
    31  H    0.278757
 Sum of Mulliken charges =  -1.00000

 Dipole moment (field-independent basis, Debye):
    X=             -9.9424    Y=             -1.4711    Z=             -3.0857  Tot=             10.5136
 Quadrupole moment (field-independent basis, Debye-Ang):
   XX=           -164.9928   YY=           -126.1053   ZZ=           -123.5194
   XY=              5.1779   XZ=              5.1809   YZ=             -2.8685

  Exact polarizability: 526.497 -13.376 244.204   7.242  15.640 162.979
 Approx polarizability: 362.827  -1.546 212.921   7.087  14.251 145.053

                      1                      2                      3
                      A                      A                      A
 Frequencies --     20.2622                29.3680                46.1654
 Red. masses --      5.2593                 5.9773                 4.3839
 Frc consts  --      0.0013                 0.0030                 0.0055
 IR Inten    --      5.8570                 2.6179                 0.3341

                      4                      5                      6
                      A                      A                      A
 Frequencies --     51.8775                68.8830                76.6006
 Red. masses --      2.9139                 3.4916                 5.9923
 Frc consts  --      0.0046                 0.0098                 0.0207
 IR Inten    --      7.6520                10.0388                26.9728

                      7                      8                      9
                      A                      A                      A
 Frequencies --    101.4279               116.9497               148.0121
 Red. masses --      8.3455                 5.2532                 5.8194
 Frc consts  --      0.0506                 0.0423                 0.0751
 IR Inten    --      6.1628                21.4075                 3.9628

                     10                     11                     12
                      A                      A                      A
 Frequencies --    161.5727               176.6017               205.3893
 Red. masses --      3.8912                 6.3006                10.9991
 Frc consts  --      0.0599                 0.1158                 0.2734
 IR Inten    --     21.8584                 2.3090                 5.9514

                     13                     14                     15
                      A                      A                      A
 Frequencies --    221.7603               241.5575               264.0002
 Red. masses --      8.7601                 1.1321                 8.3858
 Frc consts  --      0.2538                 0.0389                 0.3444
 IR Inten    --     21.5809                 0.4103                 8.3036

                     16                     17                     18
                      A                      A                      A
 Frequencies --    271.4163               291.9727               334.9718
 Red. masses --      5.5793                 8.5009                 6.6742
 Frc consts  --      0.2422                 0.4270                 0.4412
 IR Inten    --     10.5714                12.3775                 5.6160

                     19                     20                     21
                      A                      A                      A
 Frequencies --    346.1252               379.3154               407.6714
 Red. masses --      5.0054                13.2027                 4.8260
 Frc consts  --      0.3533                 1.1192                 0.4726
 IR Inten    --     30.8212                 6.4854                 8.7805

                     22                     23                     24
                      A                      A                      A
 Frequencies --    427.9733               446.1508               461.5244
 Red. masses --      4.0954                 1.4490                 3.2129
 Frc consts  --      0.4420                 0.1699                 0.4032
 IR Inten    --     31.7298               232.0483                 6.8850

                     25                     26                     27
                      A                      A                      A
 Frequencies --    524.5443               536.0749               554.9446
 Red. masses --      6.2971                11.3759                 7.1701
 Frc consts  --      1.0208                 1.9261                 1.3010
 IR Inten    --     24.8229                16.4278                22.8978

                     28                     29                     30
                      A                      A                      A
 Frequencies --    615.5078               656.2482               674.5670
 Red. masses --      7.0047                 7.1046                 5.0452
 Frc consts  --      1.5635                 1.8027                 1.3526
 IR Inten    --     80.6889                27.0417                40.3161

                     31                     32                     33
                      A                      A                      A
 Frequencies --    690.2806               706.7358               752.9737
 Red. masses --      8.1850                 4.6783                 4.7462
 Frc consts  --      2.2978                 1.3767                 1.5855
 IR Inten    --    114.7421                58.8105               500.2570

                     34                     35                     36
                      A                      A                      A
 Frequencies --    762.5698               771.7922               773.9246
 Red. masses --      1.1960                 9.8863                 7.4339
 Frc consts  --      0.4098                 3.4696                 2.6234
 IR Inten    --     67.5634                22.1199                42.2047

                     37                     38                     39
                      A                      A                      A
 Frequencies --    809.2995               855.1992               866.3960
 Red. masses --      6.8401                 1.7000                 7.8317
 Frc consts  --      2.6396                 0.7325                 3.4637
 IR Inten    --    111.7696                38.4705                24.7937

                     40                     41                     42
                      A                      A                      A
 Frequencies --    893.6897               906.7721               927.0625
 Red. masses --      1.6805                 1.1529                 2.2896
 Frc consts  --      0.7908                 0.5585                 1.1594
 IR Inten    --    347.8076                14.9532                88.5011

                     43                     44                     45
                      A                      A                      A
 Frequencies --    942.4500              1008.8513              1035.8943
 Red. masses --      2.9579                 1.3017                 4.5476
 Frc consts  --      1.5479                 0.7806                 2.8751
 IR Inten    --    263.8209                 2.7403               453.9866

                     46                     47                     48
                      A                      A                      A
 Frequencies --   1050.6980              1082.4848              1129.7440
 Red. masses --      4.7893                 2.5619                 2.1987
 Frc consts  --      3.1151                 1.7687                 1.6534
 IR Inten    --    986.9608                18.4044              5055.5685

                     49                     50                     51
                      A                      A                      A
 Frequencies --   1145.7690              1173.4563              1176.0195
 Red. masses --      2.2089                 3.6999                 2.3129
 Frc consts  --      1.7085                 3.0017                 1.8847
 IR Inten    --    379.2977              1094.6791               138.5376

                     52                     53                     54
                      A                      A                      A
 Frequencies --   1180.8046              1185.4143              1212.6013
 Red. masses --      7.8531                 2.7325                 2.3009
 Frc consts  --      6.4513                 2.2623                 1.9933
 IR Inten    --    871.0280                 6.1445              2195.1358

                     55                     56                     57
                      A                      A                      A
 Frequencies --   1233.5371              1272.8936              1290.2546
 Red. masses --      4.6423                 1.3048                 1.5959
 Frc consts  --      4.1619                 1.2456                 1.5653
 IR Inten    --   2955.6758               255.4079               324.9845

                     58                     59                     60
                      A                      A                      A
 Frequencies --   1308.6550              1324.3756              1334.0051
 Red. masses --      3.0884                 1.0871                 1.4404
 Frc consts  --      3.1162                 1.1234                 1.5102
 IR Inten    --    380.4827                33.7448               889.5921

                     61                     62                     63
                      A                      A                      A
 Frequencies --   1352.6206              1359.1118              1419.0658
 Red. masses --      1.7236                 5.2256                 1.3853
 Frc consts  --      1.8580                 5.6872                 1.6436
 IR Inten    --    491.2848                77.7659                 8.8733

                     64                     65                     66
                      A                      A                      A
 Frequencies --   1426.3630              1449.2914              1490.7850
 Red. masses --      1.6670                 3.4420                 1.0644
 Frc consts  --      1.9982                 4.2596                 1.3938
 IR Inten    --     18.4422               183.0435                27.1375

                     67                     68                     69
                      A                      A                      A
 Frequencies --   1503.2913              1508.8585              1514.6603
 Red. masses --      1.0400                 1.4309                 2.5589
 Frc consts  --      1.3848                 1.9194                 3.4588
 IR Inten    --     12.2876               482.1152               401.2021

                     70                     71                     72
                      A                      A                      A
 Frequencies --   1526.2236              1531.2437              1539.6431
 Red. masses --      2.0477                 1.9017                 3.2311
 Frc consts  --      2.8103                 2.6271                 4.5127
 IR Inten    --    411.5031               183.3743               842.0292

                     73                     74                     75
                      A                      A                      A
 Frequencies --   1573.8489              1585.0415              1620.9510
 Red. masses --      4.4288                 6.4281                 7.9771
 Frc consts  --      6.4634                 9.5152                12.3491
 IR Inten    --    258.3360               773.9084                71.5109

                     76                     77                     78
                      A                      A                      A
 Frequencies --   1675.1788              3057.8685              3072.1941
 Red. masses --      6.8119                 1.0659                 1.0609
 Frc consts  --     11.2626                 5.8721                 5.8998
 IR Inten    --    352.7003                60.5787                53.9843

                     79                     80                     81
                      A                      A                      A
 Frequencies --   3075.7188              3103.1045              3120.3769
 Red. masses --      1.0364                 1.0973                 1.1033
 Frc consts  --      5.7767                 6.2257                 6.3295
 IR Inten    --     50.7861                10.0118                64.0341

                     82                     83                     84
                      A                      A                      A
 Frequencies --   3145.1550              3154.6871              3239.5158
 Red. masses --      1.1038                 1.1022                 1.0914
 Frc consts  --      6.4332                 6.4628                 6.7481
 IR Inten    --     93.6130                50.8830                 8.0313

                     85                     86                     87
                      A                      A                      A
 Frequencies --   3270.6222              3299.8887              3630.3493
 Red. masses --      1.0938                 1.0907                 1.0786
 Frc consts  --      6.8938                 6.9974                 8.3754
 IR Inten    --      3.7013                 8.6048               133.2404

 - Thermochemistry -
 -------------------
 Temperature   298.150 Kelvin.  Pressure   1.00000 Atm.
 Atom     1 has atomic number  6 and mass  12.00000

 Molecular mass:   290.07525 amu.
 Principal axes and moments of inertia in atomic units:
                           1         2         3
     Eigenvalues --  2402.77048********************
           X            0.99993  -0.01143   0.00188
           Y            0.01142   0.99992   0.00599
           Z           -0.00195  -0.00597   0.99998
 This molecule is an asymmetric top.
 Rotational symmetry number  1.
 Warning -- assumption of classical behavior for rotation
           may cause significant error
 Rotational temperatures (Kelvin)      0.03605     0.00665     0.00583
 Rotational constants (GHZ):           0.75111     0.13863     0.12147
 Zero-point vibrational energy     591611.4 (Joules/Mol)
                                  141.39851 (Kcal/Mol)
 Warning -- explicit consideration of  28 degrees of freedom as
           vibrations may cause significant error
 Vibrational temperatures:     29.15    42.25    66.42    74.64    99.11
          (Kelvin)            110.21   145.93   168.26   212.96   232.47
                              254.09   295.51   319.06   347.55   379.84
                              390.51   420.08   481.95   498.00   545.75
                              586.55   615.76   641.91   664.03   754.70
                              771.29   798.44   885.58   944.19   970.55
                              993.16  1016.83  1083.36  1097.17  1110.44
                             1113.50  1164.40  1230.44  1246.55  1285.82
                             1304.64  1333.83  1355.97  1451.51  1490.42
                             1511.72  1557.45  1625.45  1648.50  1688.34
                             1692.03  1698.91  1705.54  1744.66  1774.78
                             1831.41  1856.39  1882.86  1905.48  1919.33
                             1946.12  1955.46  2041.72  2052.22  2085.20
                             2144.90  2162.90  2170.91  2179.26  2195.89
                             2203.12  2215.20  2264.41  2280.52  2332.18
                             2410.21  4399.59  4420.20  4425.27  4464.67
                             4489.52  4525.17  4538.89  4660.93  4705.69
                             4747.80  5223.26

 Zero-point correction=                           0.225333 (Hartree/Particle)
 Thermal correction to Energy=                    0.244002
 Thermal correction to Enthalpy=                  0.244946
 Thermal correction to Gibbs Free Energy=         0.175715
 Sum of electronic and zero-point Energies=          -1114.719318
 Sum of electronic and thermal Energies=             -1114.700649
 Sum of electronic and thermal Enthalpies=           -1114.699705
 Sum of electronic and thermal Free Energies=        -1114.768936

                     E (Thermal)             CV                S
                      KCal/Mol        Cal/Mol-Kelvin    Cal/Mol-Kelvin
 Total                  153.114             67.697            145.709
 Electronic               0.000              0.000              0.000
 Translational            0.889              2.981             42.893
 Rotational               0.889              2.981             34.496
 Vibrational            151.336             61.736             68.321
 Vibration     1          0.593              1.986              6.608
 Vibration     2          0.593              1.984              5.872
 Vibration     3          0.595              1.979              4.975
 Vibration     4          0.596              1.977              4.745
 Vibration     5          0.598              1.969              4.185
 Vibration     6          0.599              1.965              3.976
 Vibration     7          0.604              1.948              3.427
 Vibration     8          0.608              1.935              3.150
 Vibration     9          0.617              1.905              2.698
 Vibration    10          0.622              1.890              2.531
 Vibration    11          0.628              1.871              2.364
 Vibration    12          0.640              1.832              2.084
 Vibration    13          0.648              1.808              1.945
 Vibration    14          0.658              1.777              1.791
 Vibration    15          0.671              1.739              1.635
 Vibration    16          0.675              1.726              1.587
 Vibration    17          0.687              1.689              1.463
 Vibration    18          0.716              1.606              1.236
 Vibration    19          0.724              1.583              1.184
 Vibration    20          0.749              1.514              1.042
 Vibration    21          0.772              1.454              0.935
 Vibration    22          0.789              1.409              0.865
 Vibration    23          0.805              1.369              0.808
 Vibration    24          0.819              1.335              0.762
 Vibration    25          0.880              1.196              0.600
 Vibration    26          0.891              1.170              0.574
 Vibration    27          0.910              1.129              0.534
 Vibration    28          0.975              0.999              0.424

 Normal termination of Gaussian 09 at Tue Oct 30 16:17:08 2018.
