 Gaussian 09, Revision E.01,

 ----------------------------------------------------------------------
 # M062X/Gen 6D SCF=Tight INT(grid=ultrafine) OPT IOP(2/17=4) maxdisk=6
 71088640
 ----------------------------------------------------------------------

 ----------------------
 Prop.M062X_6-31pGd_opt
 ----------------------
 Symbolic Z-matrix:
 Charge = -1 Multiplicity = 1

 SCF Done:  E(RM062X) =  -267.710991823     A.U. after   15 cycles
 SCF Done:  E(RM062X) =  -267.727562693     A.U. after   13 cycles
 SCF Done:  E(RM062X) =  -267.729012662     A.U. after   12 cycles
 SCF Done:  E(RM062X) =  -267.729181477     A.U. after   11 cycles
 SCF Done:  E(RM062X) =  -267.729188934     A.U. after   10 cycles
 Optimization completed.
    -- Stationary point found.
 Normal termination of Gaussian 09 at Wed Feb 20 09:17:58 2019.
 Gaussian 09:  ES64L-G09RevE.01 30-Nov-2015

 ----------------------------------------------------------------------
 # M062X/Gen 6D SCF=Tight INT(grid=ultrafine) OPT IOP(2/17=4) Freq=Nora
 man maxdisk=671088640 geom=check guess=read IOP(2/17=4)
 ----------------------------------------------------------------------

 ----------------------
 Prop.M062X_6-31pGd_opt
 ----------------------
 Structure from the checkpoint file:  "Prop.M062X_6-31pGd_opt.chk"
 Charge = -1 Multiplicity = 1

 SCF Done:  E(RM062X) =  -267.729188934     A.U. after    1 cycles
 Optimization completed.
    -- Stationary point found.
 Normal termination of Gaussian 09 at Wed Feb 20 09:18:01 2019.

 ----------------------------------------------------------------------
 #N Geom=AllCheck Guess=TCheck SCRF=Check Test GenChk RM062X/ChkBas Fre
 q
 ----------------------------------------------------------------------

 Structure from the checkpoint file:  "Prop.M062X_6-31pGd_opt.chk"
 ----------------------
 Prop.M062X_6-31pGd_opt
 ----------------------
 Charge = -1 Multiplicity = 1

                         Standard orientation:
 ---------------------------------------------------------------------
 Center     Atomic      Atomic             Coordinates (Angstroms)
 Number     Number       Type             X           Y           Z
 ---------------------------------------------------------------------
      1          6           0        0.265815   -1.876632    0.000000
      2          6           0       -0.694046   -0.691364   -0.000000
      3          6           0        0.000000    0.707623    0.000000
      4          8           0        1.254203    0.708722    0.000000
      5          8           0       -0.790146    1.682502   -0.000000
      6          1           0       -0.269295   -2.837417   -0.000000
      7          1           0        0.919909   -1.838074    0.876889
      8          1           0        0.919909   -1.838074   -0.876889
      9          1           0       -1.356799   -0.726997    0.875410
     10          1           0       -1.356799   -0.726997   -0.875410
 ---------------------------------------------------------------------

 SCF Done:  E(RM062X) =  -267.729188934     A.U. after    1 cycles

 The electronic state is 1-A'.
 Alpha  occ. eigenvalues --  -19.38687 -19.38259 -10.43884 -10.38563 -10.37304
 Alpha  occ. eigenvalues --   -0.94523  -0.85240  -0.69491  -0.55477  -0.39238
 Alpha  occ. eigenvalues --   -0.35936  -0.33636  -0.30044  -0.27541  -0.27497
 Alpha  occ. eigenvalues --   -0.25122  -0.22758  -0.11306  -0.10886  -0.10406
 Alpha virt. eigenvalues --    0.14709   0.16585   0.18706   0.19543   0.21549
 Alpha virt. eigenvalues --    0.21795   0.22432   0.22986   0.23447   0.25923
 Alpha virt. eigenvalues --    0.28465   0.29924   0.30025   0.38036   0.38920

 Mulliken charges:
               1
     1  C   -0.697711
     2  C   -0.452608
     3  C    0.525941
     4  O   -0.650915
     5  O   -0.656506
     6  H    0.148885
     7  H    0.206234
     8  H    0.206234
     9  H    0.185223
    10  H    0.185223
 Sum of Mulliken charges =  -1.00000

 Dipole moment (field-independent basis, Debye):
    X=             -1.2209    Y=             -5.5744    Z=             -0.0000  Tot=              5.7066
 Quadrupole moment (field-independent basis, Debye-Ang):
   XX=            -42.0564   YY=            -47.0930   ZZ=            -32.4107
   XY=              1.5223   XZ=              0.0000   YZ=              0.0000

  Exact polarizability:  54.820  -1.975  56.181  -0.000   0.000  38.325
 Approx polarizability:  63.273  -3.568  54.372   0.000  -0.000  44.059

                      1                      2                      3
                     A"                     A"                     A'
 Frequencies --     36.2038               207.4004               270.5161
 Red. masses --      2.1912                 1.1226                 3.7426
 Frc consts  --      0.0017                 0.0284                 0.1614
 IR Inten    --      0.8591                 0.5600                 3.7029

                      4                      5                      6
                     A'                     A"                     A'
 Frequencies --    496.0661               581.4080               634.4357
 Red. masses --      5.3363                 1.9467                 4.2415
 Frc consts  --      0.7737                 0.3877                 1.0059
 IR Inten    --      6.5072                 3.7600                 7.3474

                      7                      8                      9
                     A"                     A'                     A'
 Frequencies --    817.8670               856.5864              1005.9329
 Red. masses --      1.4364                 4.7254                 1.5733
 Frc consts  --      0.5661                 2.0428                 0.9380
 IR Inten    --      6.7838                60.9015                 2.3782

                     10                     11                     12
                     A"                     A'                     A"
 Frequencies --   1087.7511              1104.5476              1276.6604
 Red. masses --      1.7645                 2.4578                 1.2040
 Frc consts  --      1.2301                 1.7667                 1.1562
 IR Inten    --      0.7099                 4.6247                 0.5458

                     13                     14                     15
                     A'                     A'                     A'
 Frequencies --   1313.2007              1399.7363              1425.8450
 Red. masses --      1.6087                 1.8867                 2.7755
 Frc consts  --      1.6345                 2.1779                 3.3246
 IR Inten    --     19.5402                98.0033               199.0548

                     16                     17                     18
                     A'                     A"                     A'
 Frequencies --   1488.3657              1503.8742              1517.7584
 Red. masses --      1.1008                 1.0416                 1.0570
 Frc consts  --      1.4368                 1.3880                 1.4346
 IR Inten    --      1.6673                 2.6269                14.1721

                     19                     20                     21
                     A'                     A'                     A'
 Frequencies --   1725.2938              3037.9431              3055.8345
 Red. masses --     11.4291                 1.0497                 1.0582
 Frc consts  --     20.0442                 5.7080                 5.8220
 IR Inten    --    703.7078                98.0822                54.4165

                     22                     23                     24
                     A"                     A'                     A"
 Frequencies --   3086.4779              3120.5890              3149.2166
 Red. masses --      1.1017                 1.0873                 1.1017
 Frc consts  --      6.1838                 6.2381                 6.4377
 IR Inten    --     34.7775                47.5425                51.5145

 - Thermochemistry -
 -------------------
 Temperature   298.150 Kelvin.  Pressure   1.00000 Atm.
 Atom     1 has atomic number  6 and mass  12.00000

 Molecular mass:    73.02895 amu.
 Principal axes and moments of inertia in atomic units:
                           1         2         3
     Eigenvalues --   176.73182 451.38311 606.01301
           X           -0.10521   0.99445   0.00000
           Y            0.99445   0.10521   0.00000
           Z           -0.00000  -0.00000   1.00000
 This molecule is an asymmetric top.
 Rotational symmetry number  1.
 Rotational temperatures (Kelvin)      0.49009     0.19189     0.14292
 Rotational constants (GHZ):          10.21175     3.99825     2.97806
 Zero-point vibrational energy     204558.5 (Joules/Mol)
                                   48.89065 (Kcal/Mol)
 Warning -- explicit consideration of   5 degrees of freedom as
           vibrations may cause significant error
 Vibrational temperatures:     52.09   298.40   389.21   713.73   836.52
          (Kelvin)            912.81  1176.73  1232.44  1447.31  1565.03
                             1589.20  1836.83  1889.40  2013.91  2051.47
                             2141.42  2163.74  2183.71  2482.31  4370.92
                             4396.66  4440.75  4489.83  4531.01

 Zero-point correction=                           0.077912 (Hartree/Particle)
 Thermal correction to Energy=                    0.083433
 Thermal correction to Enthalpy=                  0.084377
 Thermal correction to Gibbs Free Energy=         0.048489
 Sum of electronic and zero-point Energies=           -267.651277
 Sum of electronic and thermal Energies=              -267.645756
 Sum of electronic and thermal Enthalpies=            -267.644812
 Sum of electronic and thermal Free Energies=         -267.680699

                     E (Thermal)             CV                S
                      KCal/Mol        Cal/Mol-Kelvin    Cal/Mol-Kelvin
 Total                   52.355             17.673             75.532
 Electronic               0.000              0.000              0.000
 Translational            0.889              2.981             38.781
 Rotational               0.889              2.981             25.384
 Vibrational             50.578             11.711             11.368
 Vibration     1          0.594              1.982              5.457
 Vibration     2          0.641              1.829              2.066
 Vibration     3          0.674              1.728              1.593
 Vibration     4          0.852              1.259              0.668
 Vibration     5          0.938              1.072              0.483

 Optimization completed.
    -- Stationary point found.
 Normal termination of Gaussian 09 at Wed Feb 20 09:19:06 2019.
