 Gaussian 09, Revision E.01,

 ----------------------------------------------------------------------
 # M062X/Gen 6D SCF=Tight INT(grid=ultrafine) OPT IOP(2/17=4) SCRF=(SMD
 ,Solvent=n-Pentadecane) maxdisk=671088640
 ----------------------------------------------------------------------

 ----------------------------------
 Prop.M062X_6-31pGd_opt_Pentadecane
 ----------------------------------
 Symbolic Z-matrix:
 Charge = -1 Multiplicity = 1

 SCF Done:  E(RM062X) =  -267.760428734     A.U. after   14 cycles
 SCF Done:  E(RM062X) =  -267.775757561     A.U. after   13 cycles
 SCF Done:  E(RM062X) =  -267.777053842     A.U. after   12 cycles
 SCF Done:  E(RM062X) =  -267.777221463     A.U. after   11 cycles
 SCF Done:  E(RM062X) =  -267.777229772     A.U. after   10 cycles
 Optimization completed.
    -- Stationary point found.
 Normal termination of Gaussian 09 at Wed Feb 20 09:18:09 2019.
 Gaussian 09:  ES64L-G09RevE.01 30-Nov-2015

 ----------------------------------------------------------------------
 # M062X/Gen 6D SCF=Tight INT(grid=ultrafine) OPT IOP(2/17=4) SCRF=(SMD
 ,Solvent=n-Pentadecane) Freq=Noraman maxdisk=671088640 geom=check gues
 s=read IOP(2/17=4)
 ----------------------------------------------------------------------

 ----------------------------------
 Prop.M062X_6-31pGd_opt_Pentadecane
 ----------------------------------
 Structure from the checkpoint file:  "Prop.M062X_6-31pGd_opt_Pentadecane.chk"
 Charge = -1 Multiplicity = 1

 SCF Done:  E(RM062X) =  -267.777229772     A.U. after    1 cycles
 Optimization completed.
    -- Stationary point found.
 Normal termination of Gaussian 09 at Wed Feb 20 09:18:14 2019.

 ----------------------------------------------------------------------
 #N Geom=AllCheck Guess=TCheck SCRF=Check Test GenChk RM062X/ChkBas Fre
 q
 ----------------------------------------------------------------------

 Structure from the checkpoint file:  "Prop.M062X_6-31pGd_opt_Pentadecane.chk"
 ----------------------------------
 Prop.M062X_6-31pGd_opt_Pentadecane
 ----------------------------------
 Charge = -1 Multiplicity = 1

                         Standard orientation:
 ---------------------------------------------------------------------
 Center     Atomic      Atomic             Coordinates (Angstroms)
 Number     Number       Type             X           Y           Z
 ---------------------------------------------------------------------
      1          6           0        0.259304   -1.879883   -0.000000
      2          6           0       -0.691992   -0.689871   -0.000000
      3          6           0       -0.000000    0.702223    0.000000
      4          8           0        1.254438    0.714904    0.000000
      5          8           0       -0.783382    1.684754    0.000000
      6          1           0       -0.285460   -2.833597   -0.000000
      7          1           0        0.911731   -1.854553    0.878764
      8          1           0        0.911731   -1.854553   -0.878764
      9          1           0       -1.355160   -0.724685    0.874896
     10          1           0       -1.355160   -0.724685   -0.874896
 ---------------------------------------------------------------------

 SCF Done:  E(RM062X) =  -267.777229772     A.U. after    1 cycles

 The electronic state is 1-A'.
 Alpha  occ. eigenvalues --  -19.47175 -19.46787 -10.52224 -10.45601 -10.44912
 Alpha  occ. eigenvalues --   -1.03058  -0.93629  -0.77001  -0.63061  -0.47312
 Alpha  occ. eigenvalues --   -0.43504  -0.41537  -0.38148  -0.35446  -0.35296
 Alpha  occ. eigenvalues --   -0.32854  -0.30585  -0.19883  -0.19339  -0.18968
 Alpha virt. eigenvalues --    0.09176   0.10629   0.12482   0.12580   0.14700
 Alpha virt. eigenvalues --    0.15231   0.15641   0.16584   0.16694   0.19381
 Alpha virt. eigenvalues --    0.21534   0.21945   0.22989   0.31062   0.32083

 Mulliken charges:
               1
     1  C   -0.700897
     2  C   -0.455892
     3  C    0.539359
     4  O   -0.673645
     5  O   -0.682395
     6  H    0.168143
     7  H    0.207624
     8  H    0.207624
     9  H    0.195039
    10  H    0.195039
 Sum of Mulliken charges =  -1.00000

 Dipole moment (field-independent basis, Debye):
    X=             -1.3964    Y=             -6.1642    Z=             -0.0000  Tot=              6.3204
 Quadrupole moment (field-independent basis, Debye-Ang):
   XX=            -41.9059   YY=            -46.5516   ZZ=            -32.2510
   XY=              1.6225   XZ=             -0.0000   YZ=              0.0000

  Exact polarizability:  59.777  -2.407  59.114  -0.000   0.000  41.715
 Approx polarizability:  61.887  -3.758  52.690  -0.000   0.000  43.516

                      1                      2                      3
                     A"                     A"                     A'
 Frequencies --     39.7320               217.7364               268.3206
 Red. masses --      2.2342                 1.1127                 3.8081
 Frc consts  --      0.0021                 0.0311                 0.1615
 IR Inten    --      1.3794                 0.7114                 4.1935

                      4                      5                      6
                     A'                     A"                     A'
 Frequencies --    499.0262               584.0739               638.3482
 Red. masses --      5.2626                 1.9599                 4.2945
 Frc consts  --      0.7721                 0.3939                 1.0310
 IR Inten    --      9.5476                 4.2735                11.5963

                      7                      8                      9
                     A"                     A'                     A'
 Frequencies --    824.4004               865.8753              1011.6541
 Red. masses --      1.4349                 4.4762                 1.5663
 Frc consts  --      0.5746                 1.9773                 0.9445
 IR Inten    --      9.2195                60.6653                 3.8504

                     10                     11                     12
                     A"                     A'                     A"
 Frequencies --   1091.8234              1109.6375              1279.4928
 Red. masses --      1.7603                 2.4360                 1.2021
 Frc consts  --      1.2364                 1.7672                 1.1595
 IR Inten    --      0.6944                 5.5412                 0.2942

                     13                     14                     15
                     A'                     A'                     A'
 Frequencies --   1319.1972              1412.9238              1439.4775
 Red. masses --      1.6410                 1.5626                 3.8787
 Frc consts  --      1.6826                 1.8380                 4.7353
 IR Inten    --     24.8883                60.8514               263.8559

                     16                     17                     18
                     A'                     A"                     A'
 Frequencies --   1486.2574              1506.4115              1517.3965
 Red. masses --      1.1081                 1.0407                 1.0587
 Frc consts  --      1.4422                 1.3914                 1.4362
 IR Inten    --      1.5894                 4.4438                18.1544

                     19                     20                     21
                     A'                     A'                     A'
 Frequencies --   1709.6096              3053.3736              3063.5229
 Red. masses --     11.4777                 1.0527                 1.0518
 Frc consts  --     19.7651                 5.7825                 5.8159
 IR Inten    --    851.9610                74.9296                52.8252

                     22                     23                     24
                     A"                     A'                     A"
 Frequencies --   3092.0740              3128.9071              3154.2038
 Red. masses --      1.1017                 1.0922                 1.1023
 Frc consts  --      6.2058                 6.2997                 6.4613
 IR Inten    --     34.1542                53.7595                55.6930

 - Thermochemistry -
 -------------------
 Temperature   298.150 Kelvin.  Pressure   1.00000 Atm.
 Atom     1 has atomic number  6 and mass  12.00000

 Molecular mass:    73.02895 amu.
 Principal axes and moments of inertia in atomic units:
                           1         2         3
     Eigenvalues --   176.12472 452.43261 606.42101
           X           -0.09905   0.99508   0.00000
           Y            0.99508   0.09905   0.00000
           Z            0.00000   0.00000   1.00000
 This molecule is an asymmetric top.
 Rotational symmetry number  1.
 Rotational temperatures (Kelvin)      0.49178     0.19144     0.14283
 Rotational constants (GHZ):          10.24695     3.98897     2.97605
 Zero-point vibrational energy     205240.2 (Joules/Mol)
                                   49.05358 (Kcal/Mol)
 Warning -- explicit consideration of   5 degrees of freedom as
           vibrations may cause significant error
 Vibrational temperatures:     57.17   313.27   386.05   717.99   840.35
          (Kelvin)            918.44  1186.13  1245.80  1455.54  1570.89
                             1596.52  1840.90  1898.03  2032.88  2071.08
                             2138.39  2167.39  2183.19  2459.74  4393.12
                             4407.72  4448.80  4501.79  4538.19

 Zero-point correction=                           0.078172 (Hartree/Particle)
 Thermal correction to Energy=                    0.083660
 Thermal correction to Enthalpy=                  0.084604
 Thermal correction to Gibbs Free Energy=         0.048857
 Sum of electronic and zero-point Energies=           -267.699058
 Sum of electronic and thermal Energies=              -267.693570
 Sum of electronic and thermal Enthalpies=            -267.692626
 Sum of electronic and thermal Free Energies=         -267.728373

                     E (Thermal)             CV                S
                      KCal/Mol        Cal/Mol-Kelvin    Cal/Mol-Kelvin
 Total                   52.497             17.590             75.237
 Electronic               0.000              0.000              0.000
 Translational            0.889              2.981             38.781
 Rotational               0.889              2.981             25.383
 Vibrational             50.720             11.629             11.073
 Vibration     1          0.594              1.981              5.272
 Vibration     2          0.646              1.814              1.978
 Vibration     3          0.673              1.731              1.607
 Vibration     4          0.854              1.252              0.661
 Vibration     5          0.941              1.066              0.478

 Optimization completed.
    -- Stationary point found.
 Normal termination of Gaussian 09 at Wed Feb 20 09:19:22 2019.
