 Gaussian 09, Revision E.01,

 ----------------------------------------------------------------------
 # M062X/Gen 6D SCF=Tight INT(grid=ultrafine) OPT IOP(2/17=4) SCRF=(SMD
 ,Solvent=h2o) maxdisk=671088640
 ----------------------------------------------------------------------

 ----------------------------
 Prop.M062X_6-31pGd_opt_water
 ----------------------------
 Symbolic Z-matrix:
 Charge = -1 Multiplicity = 1

 SCF Done:  E(RM062X) =  -267.832446223     A.U. after   12 cycles
 SCF Done:  E(RM062X) =  -267.842064733     A.U. after   12 cycles
 SCF Done:  E(RM062X) =  -267.843485445     A.U. after   11 cycles
 SCF Done:  E(RM062X) =  -267.843669358     A.U. after   10 cycles
 SCF Done:  E(RM062X) =  -267.843683362     A.U. after    9 cycles
 SCF Done:  E(RM062X) =  -267.843684169     A.U. after    9 cycles
 Optimization completed.
    -- Stationary point found.
 Normal termination of Gaussian 09 at Wed Feb 20 09:18:08 2019.
 Gaussian 09:  ES64L-G09RevE.01 30-Nov-2015

 ----------------------------------------------------------------------
 # M062X/Gen 6D SCF=Tight INT(grid=ultrafine) OPT IOP(2/17=4) SCRF=(SMD
 ,Solvent=h2o) Freq=Noraman maxdisk=671088640 geom=check guess=read IOP
 (2/17=4)
 ----------------------------------------------------------------------

 ----------------------------
 Prop.M062X_6-31pGd_opt_water
 ----------------------------
 Structure from the checkpoint file:  "Prop.M062X_6-31pGd_opt_water.chk"
 Charge = -1 Multiplicity = 1

 SCF Done:  E(RM062X) =  -267.843684169     A.U. after    1 cycles
 Optimization completed.
    -- Stationary point found.
 Normal termination of Gaussian 09 at Wed Feb 20 09:18:13 2019.

 ----------------------------------------------------------------------
 #N Geom=AllCheck Guess=TCheck SCRF=Check Test GenChk RM062X/ChkBas Fre
 q
 ----------------------------------------------------------------------

 Structure from the checkpoint file:  "Prop.M062X_6-31pGd_opt_water.chk"
 ----------------------------
 Prop.M062X_6-31pGd_opt_water
 ----------------------------
 Charge = -1 Multiplicity = 1

                         Standard orientation:
 ---------------------------------------------------------------------
 Center     Atomic      Atomic             Coordinates (Angstroms)
 Number     Number       Type             X           Y           Z
 ---------------------------------------------------------------------
      1          6           0        0.234531   -1.889407   -0.000000
      2          6           0       -0.694577   -0.684481    0.000000
      3          6           0       -0.000000    0.678018    0.000000
      4          8           0        1.262263    0.726898   -0.000000
      5          8           0       -0.755171    1.697055    0.000000
      6          1           0       -0.343471   -2.819272   -0.000000
      7          1           0        0.879224   -1.892951    0.884517
      8          1           0        0.879224   -1.892951   -0.884517
      9          1           0       -1.355721   -0.705615    0.874887
     10          1           0       -1.355721   -0.705615   -0.874887
 ---------------------------------------------------------------------

 SCF Done:  E(RM062X) =  -267.843684169     A.U. after    1 cycles

 The electronic state is 1-A'.
 Alpha  occ. eigenvalues --  -19.59669 -19.59310 -10.64249 -10.53320 -10.52454
 Alpha  occ. eigenvalues --   -1.15365  -1.05573  -0.85364  -0.71690  -0.58288
 Alpha  occ. eigenvalues --   -0.52358  -0.52306  -0.49925  -0.45617  -0.44010
 Alpha  occ. eigenvalues --   -0.41201  -0.39213  -0.32834  -0.31968  -0.31651
 Alpha virt. eigenvalues --    0.03432   0.04906   0.05756   0.06550   0.08179
 Alpha virt. eigenvalues --    0.08966   0.09251   0.09900   0.10378   0.11378
 Alpha virt. eigenvalues --    0.13413   0.15805   0.16414   0.23822   0.24228

 Mulliken charges:
               1
     1  C   -0.720476
     2  C   -0.475447
     3  C    0.658016
     4  O   -0.788977
     5  O   -0.800774
     6  H    0.214938
     7  H    0.217922
     8  H    0.217922
     9  H    0.238437
    10  H    0.238437
 Sum of Mulliken charges =  -1.00000

 Dipole moment (field-independent basis, Debye):
    X=             -2.2159    Y=             -8.0067    Z=             -0.0000  Tot=              8.3076
 Quadrupole moment (field-independent basis, Debye-Ang):
   XX=            -41.5272   YY=            -45.7410   ZZ=            -31.5127
   XY=              2.0028   XZ=              0.0000   YZ=              0.0000

  Exact polarizability:  71.991  -4.300  63.889  -0.000   0.000  49.551
 Approx polarizability:  57.597  -3.754  49.035   0.000   0.000  41.281

                      1                      2                      3
                     A"                     A"                     A'
 Frequencies --     36.7558               252.8173               279.7101
 Red. masses --      2.3531                 1.0853                 3.7768
 Frc consts  --      0.0019                 0.0409                 0.1741
 IR Inten    --      3.4000                 2.0286                 4.4516

                      4                      5                      6
                     A'                     A"                     A'
 Frequencies --    502.5723               576.3972               641.9901
 Red. masses --      5.4145                 1.9618                 4.8406
 Frc consts  --      0.8058                 0.3840                 1.1755
 IR Inten    --     20.5488                 8.7286                37.3769

                      7                      8                      9
                     A"                     A'                     A'
 Frequencies --    819.3005               877.9672              1027.7834
 Red. masses --      1.4840                 4.0319                 1.6149
 Frc consts  --      0.5869                 1.8311                 1.0051
 IR Inten    --     29.5360                45.4750                13.6361

                     10                     11                     12
                     A"                     A'                     A"
 Frequencies --   1106.8691              1113.4523              1293.3274
 Red. masses --      1.7659                 2.3385                 1.1673
 Frc consts  --      1.2747                 1.7082                 1.1504
 IR Inten    --      1.8962                17.6274                 0.1722

                     13                     14                     15
                     A'                     A'                     A'
 Frequencies --   1333.5599              1421.4751              1445.0394
 Red. masses --      1.8199                 1.3419                 3.1896
 Frc consts  --      1.9068                 1.5975                 3.9241
 IR Inten    --    128.4464                40.8804               315.2241

                     16                     17                     18
                     A'                     A"                     A'
 Frequencies --   1465.7594              1502.3871              1508.2177
 Red. masses --      1.2575                 1.0393                 1.0777
 Frc consts  --      1.5917                 1.3822                 1.4444
 IR Inten    --     58.9485                10.2973                47.1841

                     19                     20                     21
                     A'                     A'                     A'
 Frequencies --   1542.2002              3082.0569              3083.9741
 Red. masses --      8.3904                 1.0472                 1.0507
 Frc consts  --     11.7575                 5.8606                 5.8879
 IR Inten    --   1427.9666                61.8295                 7.6929

                     22                     23                     24
                     A"                     A'                     A"
 Frequencies --   3119.1675              3151.9268              3158.6017
 Red. masses --      1.1016                 1.1024                 1.1035
 Frc consts  --      6.3147                 6.4525                 6.4867
 IR Inten    --     11.0903                51.7723                61.1776

 - Thermochemistry -
 -------------------
 Temperature   298.150 Kelvin.  Pressure   1.00000 Atm.
 Atom     1 has atomic number  6 and mass  12.00000

 Molecular mass:    73.02895 amu.
 Principal axes and moments of inertia in atomic units:
                           1         2         3
     Eigenvalues --   175.22812 455.14110 608.08707
           X           -0.07710   0.99702   0.00000
           Y            0.99702   0.07710   0.00000
           Z           -0.00000   0.00000   1.00000
 This molecule is an asymmetric top.
 Rotational symmetry number  1.
 Rotational temperatures (Kelvin)      0.49429     0.19030     0.14244
 Rotational constants (GHZ):          10.29938     3.96523     2.96790
 Zero-point vibrational energy     205418.6 (Joules/Mol)
                                   49.09622 (Kcal/Mol)
 Warning -- explicit consideration of   5 degrees of freedom as
           vibrations may cause significant error
 Vibrational temperatures:     52.88   363.75   402.44   723.09   829.31
          (Kelvin)            923.68  1178.79  1263.20  1478.75  1592.54
                             1602.01  1860.81  1918.69  2045.18  2079.09
                             2108.90  2161.60  2169.99  2218.88  4434.39
                             4437.15  4487.78  4534.91  4544.52

 Zero-point correction=                           0.078240 (Hartree/Particle)
 Thermal correction to Energy=                    0.083664
 Thermal correction to Enthalpy=                  0.084608
 Thermal correction to Gibbs Free Energy=         0.048952
 Sum of electronic and zero-point Energies=           -267.765444
 Sum of electronic and thermal Energies=              -267.760020
 Sum of electronic and thermal Enthalpies=            -267.759076
 Sum of electronic and thermal Free Energies=         -267.794732

                     E (Thermal)             CV                S
                      KCal/Mol        Cal/Mol-Kelvin    Cal/Mol-Kelvin
 Total                   52.500             17.494             75.045
 Electronic               0.000              0.000              0.000
 Translational            0.889              2.981             38.781
 Rotational               0.889              2.981             25.387
 Vibrational             50.723             11.532             10.877
 Vibration     1          0.594              1.982              5.427
 Vibration     2          0.664              1.758              1.711
 Vibration     3          0.680              1.711              1.535
 Vibration     4          0.858              1.244              0.652
 Vibration     5          0.933              1.082              0.492

 Optimization completed.
    -- Stationary point found.
 Normal termination of Gaussian 09 at Wed Feb 20 09:19:17 2019.
