 Gaussian 09, Revision E.01,

 ----------------------------------------------------------------------
 # M062X/Gen 6D SCF=Tight INT(grid=ultrafine) OPT IOP(2/17=4) maxdisk=3
 221225472
 ----------------------------------------------------------------------

 --------------------------------
 3TMF4Nitro_EtO.M062X_6-31pGd_opt
 --------------------------------
 Symbolic Z-matrix:
 Charge = -1 Multiplicity = 1

 SCF Done:  E(RM062X) =  -1383.14208014     A.U. after   16 cycles
 SCF Done:  E(RM062X) =  -1383.18470233     A.U. after   15 cycles
 SCF Done:  E(RM062X) =  -1383.19636507     A.U. after   17 cycles
 SCF Done:  E(RM062X) =  -1383.20046705     A.U. after   17 cycles
 SCF Done:  E(RM062X) =  -1383.20250447     A.U. after   18 cycles
 SCF Done:  E(RM062X) =  -1383.20544099     A.U. after   18 cycles
 SCF Done:  E(RM062X) =  -1383.20626166     A.U. after   17 cycles
 SCF Done:  E(RM062X) =  -1383.20320213     A.U. after   18 cycles
 SCF Done:  E(RM062X) =  -1383.20685999     A.U. after   12 cycles
 SCF Done:  E(RM062X) =  -1383.20707935     A.U. after   14 cycles
 SCF Done:  E(RM062X) =  -1383.20788739     A.U. after   13 cycles
 SCF Done:  E(RM062X) =  -1383.20789999     A.U. after   13 cycles
 SCF Done:  E(RM062X) =  -1383.20790199     A.U. after   12 cycles
 SCF Done:  E(RM062X) =  -1383.20790250     A.U. after   12 cycles
 SCF Done:  E(RM062X) =  -1383.20790278     A.U. after   11 cycles
 SCF Done:  E(RM062X) =  -1383.20790290     A.U. after   11 cycles
 SCF Done:  E(RM062X) =  -1383.20790295     A.U. after   10 cycles
 SCF Done:  E(RM062X) =  -1383.20790297     A.U. after   10 cycles
 Optimization completed.
    -- Stationary point found.
 Normal termination of Gaussian 09 at Tue Feb 19 13:47:57 2019.
 Gaussian 09:  ES64L-G09RevE.01 30-Nov-2015

 ----------------------------------------------------------------------
 # M062X/Gen 6D SCF=Tight INT(grid=ultrafine) OPT IOP(2/17=4) Freq=Nora
 man maxdisk=3221225472 geom=check guess=read IOP(2/17=4)
 ----------------------------------------------------------------------

 --------------------------------
 3TMF4Nitro_EtO.M062X_6-31pGd_opt
 --------------------------------
 Structure from the checkpoint file:  "3TMF4Nitro_EtO.M062X_6-31pGd_opt.chk"
 Charge = -1 Multiplicity = 1

 SCF Done:  E(RM062X) =  -1383.20790297     A.U. after    1 cycles
 Optimization completed.
    -- Stationary point found.
 Normal termination of Gaussian 09 at Tue Feb 19 13:48:59 2019.

 ----------------------------------------------------------------------
 #N Geom=AllCheck Guess=TCheck SCRF=Check Test GenChk RM062X/ChkBas Fre
 q
 ----------------------------------------------------------------------

 Structure from the checkpoint file:  "3TMF4Nitro_EtO.M062X_6-31pGd_opt.chk"
 --------------------------------
 3TMF4Nitro_EtO.M062X_6-31pGd_opt
 --------------------------------
 Charge = -1 Multiplicity = 1

                         Standard orientation:
 ---------------------------------------------------------------------
 Center     Atomic      Atomic             Coordinates (Angstroms)
 Number     Number       Type             X           Y           Z
 ---------------------------------------------------------------------
      1          6           0       -5.945442   -3.524379   -0.051264
      2          6           0       -5.093703   -2.257448   -0.033239
      3          6           0       -3.604462   -2.582953   -0.030621
      4          7           0       -2.834893   -1.358663   -0.013478
      5          6           0       -1.486861   -1.407124   -0.013491
      6          8           0       -0.839290   -2.454928   -0.026941
      7          7           0       -0.906200   -0.135593    0.002993
      8          6           0        0.424891    0.170040    0.004573
      9          6           0        1.468067   -0.786693    0.023407
     10          6           0        0.767683    1.540577    0.006073
     11          6           0        2.091334    1.926499   -0.000144
     12          6           0        3.113516    0.976023   -0.021072
     13          6           0        2.798469   -0.394446    0.002777
     14          1           0       -7.014002   -3.286137   -0.053305
     15          1           0       -5.742565   -4.148315    0.827222
     16          1           0       -5.734701   -4.128399   -0.941724
     17          1           0       -5.329767   -1.648732    0.847541
     18          1           0       -5.322161   -1.628905   -0.902025
     19          1           0       -3.341366   -3.178509   -0.916567
     20          1           0       -3.349212   -3.198975    0.843642
     21          1           0       -3.341831   -0.452262   -0.001041
     22          1           0       -1.549755    0.690726    0.006181
     23          1           0        1.206274   -1.833951    0.068447
     24          1           0       -0.031862    2.277245    0.005906
     25          6           0        3.834130   -1.500328    0.086376
     26          9           0        3.265810   -2.668497    0.444328
     27          9           0        4.773129   -1.250073    1.016314
     28          9           0        4.454528   -1.737638   -1.078899
     29          7           0        4.473761    1.482169   -0.112766
     30          8           0        4.683986    2.628385    0.267349
     31          8           0        5.332200    0.757485   -0.589877
     32          1           0        2.361755    2.975960   -0.005993
     33          8           0       -4.307014    1.022555    0.016211
     34          8           0       -2.382378    2.177430    0.008969
     35          6           0       -3.641700    2.088518    0.014566
     36          6           0       -4.447921    3.395742    0.020066
     37          6           0       -3.600036    4.661605    0.016723
     38          1           0       -5.104924    3.362721    0.897929
     39          1           0       -5.114417    3.364361   -0.850663
     40          1           0       -2.945006    4.690280    0.892228
     41          1           0       -4.229297    5.559860    0.021231
     42          1           0       -2.954866    4.692263   -0.866020
 ---------------------------------------------------------------------

 SCF Done:  E(RM062X) =  -1383.20790297     A.U. after    1 cycles

 The electronic state is 1-A.
 Alpha  occ. eigenvalues --  -25.21033 -25.21005 -25.20732 -19.59276 -19.59076
 Alpha  occ. eigenvalues --  -19.50413 -19.48365 -19.47776 -14.92584 -14.68472
 Alpha  occ. eigenvalues --  -14.66161 -10.72699 -10.57366 -10.52919 -10.52756
 Alpha  occ. eigenvalues --  -10.52532 -10.51348 -10.48972 -10.48091 -10.47531
 Alpha  occ. eigenvalues --  -10.47178 -10.46055 -10.45451 -10.43828 -10.43711
 Alpha  occ. eigenvalues --   -1.37753  -1.28419  -1.28194  -1.27755  -1.09045
 Alpha  occ. eigenvalues --   -1.06639  -1.04424  -0.95640  -0.94673  -0.92142
 Alpha  occ. eigenvalues --   -0.89928  -0.81082  -0.80617  -0.78767  -0.75894
 Alpha  occ. eigenvalues --   -0.72980  -0.70811  -0.67348  -0.64391  -0.62270
 Alpha  occ. eigenvalues --   -0.61822  -0.60097  -0.59791  -0.59194  -0.58194
 Alpha  occ. eigenvalues --   -0.56019  -0.54393  -0.53705  -0.52509  -0.50892
 Alpha  occ. eigenvalues --   -0.49287  -0.48176  -0.47886  -0.47179  -0.46054
 Alpha  occ. eigenvalues --   -0.44651  -0.44090  -0.43982  -0.43928  -0.42448
 Alpha  occ. eigenvalues --   -0.42185  -0.42029  -0.41870  -0.41503  -0.40613
 Alpha  occ. eigenvalues --   -0.39898  -0.38966  -0.38388  -0.37927  -0.37014
 Alpha  occ. eigenvalues --   -0.35786  -0.35099  -0.34598  -0.33646  -0.33293
 Alpha  occ. eigenvalues --   -0.31899  -0.31147  -0.31003  -0.30209  -0.29732
 Alpha  occ. eigenvalues --   -0.29512  -0.28923  -0.28273  -0.24337  -0.23970
 Alpha  occ. eigenvalues --   -0.21330  -0.20780  -0.20619  -0.19985  -0.17326
 Alpha virt. eigenvalues --    0.03755   0.09184   0.09761   0.10261   0.11086
 Alpha virt. eigenvalues --    0.11433   0.12010   0.12339   0.12516   0.12881
 Alpha virt. eigenvalues --    0.12962   0.13582   0.13874   0.14136   0.14415

 Mulliken charges:
               1
     1  C   -0.789611
     2  C   -0.353951
     3  C   -0.103614
     4  N   -0.776584
     5  C    0.707855
     6  O   -0.599771
     7  N   -0.631899
     8  C   -0.574907
     9  C   -0.088810
    10  C   -0.024488
    11  C   -0.094358
    12  C   -1.043014
    13  C    0.297213
    14  H    0.199816
    15  H    0.200610
    16  H    0.200614
    17  H    0.240478
    18  H    0.240201
    19  H    0.214386
    20  H    0.213999
    21  H    0.527036
    22  H    0.514818
    23  H    0.311659
    24  H    0.289847
    25  C    1.781039
    26  F   -0.344068
    27  F   -0.292753
    28  F   -0.254692
    29  N   -0.327245
    30  O   -0.042065
    31  O   -0.040107
    32  H    0.246218
    33  O   -0.629021
    34  O   -0.686710
    35  C    0.688053
    36  C   -0.495024
    37  C   -0.713916
    38  H    0.211876
    39  H    0.211803
    40  H    0.216785
    41  H    0.175810
    42  H    0.216493
 Sum of Mulliken charges =  -1.00000

 Dipole moment (field-independent basis, Debye):
    X=             -1.5401    Y=             -0.9511    Z=              0.1059  Tot=              1.8132
 Quadrupole moment (field-independent basis, Debye-Ang):
   XX=           -234.8402   YY=           -176.9182   ZZ=           -150.6832
   XY=              2.7808   XZ=              1.4400   YZ=             -1.1298

  Exact polarizability: 327.346  29.631 239.275  -3.261   3.669 134.897
 Approx polarizability: 335.269  22.161 281.005  -5.573   8.937 180.212

                      1                      2                      3
                      A                      A                      A
 Frequencies --      4.7224                18.8338                21.2415
 Red. masses --      2.6715                 4.9892                 4.3345
 Frc consts  --      0.0000                 0.0010                 0.0012
 IR Inten    --      0.1781                 0.1690                 0.2647

                      4                      5                      6
                      A                      A                      A
 Frequencies --     26.2790                41.7494                45.8202
 Red. masses --      2.4713                 9.9780                 2.6844
 Frc consts  --      0.0010                 0.0102                 0.0033
 IR Inten    --      0.0081                 0.7024                 0.8841

                      7                      8                      9
                      A                      A                      A
 Frequencies --     51.8033                54.6273                60.5848
 Red. masses --      5.8055                 4.4910                 4.8066
 Frc consts  --      0.0092                 0.0079                 0.0104
 IR Inten    --      1.2785                 1.9435                 0.1396

                     10                     11                     12
                      A                      A                      A
 Frequencies --     65.4039                85.4924                97.0768
 Red. masses --      6.9055                 5.4065                 8.6267
 Frc consts  --      0.0174                 0.0233                 0.0479
 IR Inten    --      1.1248                 5.0152                 6.0545

                     13                     14                     15
                      A                      A                      A
 Frequencies --    107.0536               120.9798               127.1793
 Red. masses --      8.3112                 5.9154                 5.5788
 Frc consts  --      0.0561                 0.0510                 0.0532
 IR Inten    --      4.1521                 7.5338                 5.2651

                     16                     17                     18
                      A                      A                      A
 Frequencies --    159.5240               185.7925               187.1791
 Red. masses --      5.9638                 4.2910                 5.9668
 Frc consts  --      0.0894                 0.0873                 0.1232
 IR Inten    --      1.2208                 2.5825                28.0072

                     19                     20                     21
                      A                      A                      A
 Frequencies --    197.3291               219.5736               226.3455
 Red. masses --      9.6957                 1.1244                 7.2058
 Frc consts  --      0.2224                 0.0319                 0.2175
 IR Inten    --      0.9287                 0.5216                 1.4185

                     22                     23                     24
                      A                      A                      A
 Frequencies --    235.3613               253.9044               274.3020
 Red. masses --      1.1231                 5.9182                 9.1966
 Frc consts  --      0.0367                 0.2248                 0.4077
 IR Inten    --      0.0017                 5.8569                 2.3975

                     25                     26                     27
                      A                      A                      A
 Frequencies --    296.1072               307.6598               335.3758
 Red. masses --      7.6791                 4.2144                 7.4073
 Frc consts  --      0.3967                 0.2350                 0.4909
 IR Inten    --      1.4215                24.2596                 2.2059

                     28                     29                     30
                      A                      A                      A
 Frequencies --    344.8748               378.5254               409.2712
 Red. masses --      5.1838                10.6768                 6.3695
 Frc consts  --      0.3633                 0.9013                 0.6286
 IR Inten    --     13.2463                 2.2559                 1.2211

                     31                     32                     33
                      A                      A                      A
 Frequencies --    414.3158               464.7645               518.1802
 Red. masses --      6.2037                 3.7452                 6.4853
 Frc consts  --      0.6274                 0.4766                 1.0260
 IR Inten    --     10.1463                 3.3732                10.1930

                     34                     35                     36
                      A                      A                      A
 Frequencies --    521.6093               534.7920               558.4891
 Red. masses --      5.7266                12.3986                 7.8315
 Frc consts  --      0.9180                 2.0893                 1.4392
 IR Inten    --     18.1928                 4.7876                11.8390

                     37                     38                     39
                      A                      A                      A
 Frequencies --    584.7042               617.7060               659.6484
 Red. masses --      1.9748                 7.0258                 4.7230
 Frc consts  --      0.3978                 1.5795                 1.2108
 IR Inten    --      0.6347                 0.9331                46.7970

                     40                     41                     42
                      A                      A                      A
 Frequencies --    664.4413               667.2980               693.0238
 Red. masses --      7.2704                 5.5533                 7.9904
 Frc consts  --      1.8911                 1.4569                 2.2611
 IR Inten    --     13.7377                 2.2532                14.2696

                     43                     44                     45
                      A                      A                      A
 Frequencies --    721.5157               747.6346               772.0822
 Red. masses --      5.6985                 1.1323                 4.1921
 Frc consts  --      1.7479                 0.3729                 1.4723
 IR Inten    --      4.7604                 5.4858                37.8721

                     46                     47                     48
                      A                      A                      A
 Frequencies --    775.2933               781.7343               790.3639
 Red. masses --      8.4830                 7.3275                 6.9961
 Frc consts  --      3.0042                 2.6383                 2.5749
 IR Inten    --      3.6594                 5.1371                 9.6768

                     49                     50                     51
                      A                      A                      A
 Frequencies --    820.7186               829.2400               875.0540
 Red. masses --      1.3427                 1.2717                 9.3116
 Frc consts  --      0.5329                 0.5152                 4.2009
 IR Inten    --      0.0041                18.7452                33.4552

                     52                     53                     54
                      A                      A                      A
 Frequencies --    882.6394               890.7529               901.5850
 Red. masses --      1.5074                 4.0305                 1.1579
 Frc consts  --      0.6919                 1.8842                 0.5545
 IR Inten    --      9.8506                39.4918                 2.4160

                     55                     56                     57
                      A                      A                      A
 Frequencies --    922.8662               949.7215               960.9249
 Red. masses --      1.8035                 1.4064                 4.6678
 Frc consts  --      0.9050                 0.7474                 2.5395
 IR Inten    --      7.2658                34.5645                 1.1130

                     58                     59                     60
                      A                      A                      A
 Frequencies --    994.2076              1023.5462              1023.9028
 Red. masses --      1.1120                 1.2540                 1.6692
 Frc consts  --      0.6476                 0.7741                 1.0310
 IR Inten    --     78.1133                13.6529                 2.5896

                     61                     62                     63
                      A                      A                      A
 Frequencies --   1048.9057              1065.8443              1082.4312
 Red. masses --      4.2416                 4.4421                 2.6561
 Frc consts  --      2.7495                 2.9732                 1.8336
 IR Inten    --     99.3225               114.3275                 6.1857

                     64                     65                     66
                      A                      A                      A
 Frequencies --   1109.6658              1113.2844              1155.6007
 Red. masses --      1.7709                 2.3709                 2.3634
 Frc consts  --      1.2848                 1.7313                 1.8596
 IR Inten    --      0.7441                 5.5507                40.7141

                     67                     68                     69
                      A                      A                      A
 Frequencies --   1167.7572              1182.0004              1193.5559
 Red. masses --      1.9714                 1.6036                 4.1878
 Frc consts  --      1.5839                 1.3200                 3.5150
 IR Inten    --     89.4464                 0.0110                 0.8295

                     70                     71                     72
                      A                      A                      A
 Frequencies --   1205.5860              1227.8922              1232.0724
 Red. masses --      3.7196                 9.0888                 2.5486
 Frc consts  --      3.1852                 8.0738                 2.2794
 IR Inten    --    196.7754               240.9731               137.8646

                     73                     74                     75
                      A                      A                      A
 Frequencies --   1273.0718              1288.4397              1298.4315
 Red. masses --      1.1912                 1.1840                 1.8460
 Frc consts  --      1.1374                 1.1581                 1.8337
 IR Inten    --      0.0789                 0.1994               340.6138

                     76                     77                     78
                      A                      A                      A
 Frequencies --   1311.6163              1319.2543              1329.5489
 Red. masses --      1.5399                 3.0931                 1.0828
 Frc consts  --      1.5609                 3.1718                 1.1277
 IR Inten    --    287.8488               228.7606                 0.1881

                     79                     80                     81
                      A                      A                      A
 Frequencies --   1336.3960              1342.4540              1373.2149
 Red. masses --      1.6441                 2.3620                 2.8047
 Frc consts  --      1.7300                 2.5080                 3.1161
 IR Inten    --     44.8259               193.9541               542.0700

                     82                     83                     84
                      A                      A                      A
 Frequencies --   1418.6578              1423.0597              1423.4358
 Red. masses --      4.3830                 1.3316                 1.3442
 Frc consts  --      5.1972                 1.5888                 1.6047
 IR Inten    --    415.4349                 0.3467                68.6180

                     85                     86                     87
                      A                      A                      A
 Frequencies --   1434.9226              1452.1395              1474.9595
 Red. masses --      1.6250                 7.6605                 3.2302
 Frc consts  --      1.9714                 9.5175                 4.1403
 IR Inten    --     29.1765               665.5675               311.3169

                     88                     89                     90
                      A                      A                      A
 Frequencies --   1492.0775              1496.4007              1508.6138
 Red. masses --      1.2904                 5.5489                 1.0744
 Frc consts  --      1.6926                 7.3207                 1.4407
 IR Inten    --     35.3246               111.2765                 8.4604

                     91                     92                     93
                      A                      A                      A
 Frequencies --   1512.0713              1523.2828              1524.2942
 Red. masses --      1.0393                 1.0401                 1.1106
 Frc consts  --      1.4000                 1.4219                 1.5203
 IR Inten    --      5.2802                 7.1294                62.4924

                     94                     95                     96
                      A                      A                      A
 Frequencies --   1528.3162              1541.4555              1561.1390
 Red. masses --      1.0685                 1.0846                 3.0101
 Frc consts  --      1.4705                 1.5184                 4.3223
 IR Inten    --      1.1692                 9.9994               145.2432

                     97                     98                     99
                      A                      A                      A
 Frequencies --   1620.8665              1635.6257              1674.8265
 Red. masses --      3.8175                 2.8256                 6.1577
 Frc consts  --      5.9091                 4.4537                10.1767
 IR Inten    --     70.8105               214.3313               723.6537

                    100                    101                    102
                      A                      A                      A
 Frequencies --   1685.8244              1699.7385              1720.4005
 Red. masses --      2.8548                 5.1807                 3.3127
 Frc consts  --      4.7802                 8.8186                 5.7768
 IR Inten    --    161.0217               389.4241               609.6736

                    103                    104                    105
                      A                      A                      A
 Frequencies --   1801.1192              2972.6786              3040.6321
 Red. masses --      3.1982                 1.1018                 1.0583
 Frc consts  --      6.1129                 5.7363                 5.7647
 IR Inten    --    427.6739              1296.5016               120.0733

                    106                    107                    108
                      A                      A                      A
 Frequencies --   3065.7861              3065.8092              3069.8397
 Red. masses --      1.0575                 1.0820                 1.0451
 Frc consts  --      5.8560                 5.9917                 5.8029
 IR Inten    --     46.4108                38.6042                65.9934

                    109                    110                    111
                      A                      A                      A
 Frequencies --   3077.4019              3085.3022              3109.8442
 Red. masses --      1.0562                 1.0609                 1.1013
 Frc consts  --      5.8935                 5.9498                 6.2755
 IR Inten    --     29.7968                12.9076                13.9693

                    112                    113                    114
                      A                      A                      A
 Frequencies --   3116.0356              3139.6261              3140.5320
 Red. masses --      1.1028                 1.1038                 1.0970
 Frc consts  --      6.3091                 6.4107                 6.3745
 IR Inten    --      0.0120                64.8079                77.7396

                    115                    116                    117
                      A                      A                      A
 Frequencies --   3141.2938              3151.0516              3162.0897
 Red. masses --      1.1008                 1.0934                 1.1023
 Frc consts  --      6.3997                 6.3966                 6.4940
 IR Inten    --     11.6689              1767.2771                36.3211

                    118                    119                    120
                      A                      A                      A
 Frequencies --   3227.9482              3266.1632              3304.4000
 Red. masses --      1.0931                 1.0928                 1.0911
 Frc consts  --      6.7109                 6.8688                 7.0196
 IR Inten    --     38.4787                 0.6282                27.4958

 - Thermochemistry -
 -------------------
 Temperature   298.150 Kelvin.  Pressure   1.00000 Atm.
 Atom     1 has atomic number  6 and mass  12.00000

 Molecular mass:   364.11203 amu.
 Principal axes and moments of inertia in atomic units:
                           1         2         3
     Eigenvalues --  6148.14069********************
           X            0.99988   0.01542  -0.00003
           Y           -0.01542   0.99988   0.00109
           Z            0.00005  -0.00109   1.00000
 This molecule is an asymmetric top.
 Rotational symmetry number  1.
 Warning -- assumption of classical behavior for rotation
           may cause significant error
 Rotational temperatures (Kelvin)      0.01409     0.00493     0.00372
 Rotational constants (GHZ):           0.29354     0.10276     0.07752
 Zero-point vibrational energy     840074.0 (Joules/Mol)
                                  200.78252 (Kcal/Mol)
 Warning -- explicit consideration of  38 degrees of freedom as
           vibrations may cause significant error
 Vibrational temperatures:      6.79    27.10    30.56    37.81    60.07
          (Kelvin)             65.93    74.53    78.60    87.17    94.10
                              123.00   139.67   154.03   174.06   182.98
                              229.52   267.31   269.31   283.91   315.92
                              325.66   338.63   365.31   394.66   426.03
                              442.65   482.53   496.20   544.61   588.85
                              596.11   668.69   745.54   750.48   769.45
                              803.54   841.26   888.74   949.09   955.98
                              960.09   997.11  1038.10  1075.68  1110.85
                             1115.47  1124.74  1137.16  1180.83  1193.09
                             1259.01  1269.92  1281.59  1297.18  1327.80
                             1366.44  1382.55  1430.44  1472.65  1473.17
                             1509.14  1533.51  1557.38  1596.56  1601.77
                             1662.65  1680.14  1700.63  1717.26  1734.57
                             1766.66  1772.68  1831.66  1853.78  1868.15
                             1887.12  1898.11  1912.92  1922.77  1931.49
                             1975.75  2041.13  2047.46  2048.00  2064.53
                             2089.30  2122.14  2146.76  2152.98  2170.56
                             2175.53  2191.66  2193.12  2198.90  2217.81
                             2246.13  2332.06  2353.30  2409.70  2425.52
                             2445.54  2475.27  2591.41  4277.02  4374.79
                             4410.98  4411.01  4416.81  4427.69  4439.06
                             4474.37  4483.27  4517.22  4518.52  4519.62
                             4533.65  4549.54  4644.29  4699.27  4754.29

 Zero-point correction=                           0.319967 (Hartree/Particle)
 Thermal correction to Energy=                    0.345810
 Thermal correction to Enthalpy=                  0.346754
 Thermal correction to Gibbs Free Energy=         0.256794
 Sum of electronic and zero-point Energies=          -1382.887936
 Sum of electronic and thermal Energies=             -1382.862093
 Sum of electronic and thermal Enthalpies=           -1382.861149
 Sum of electronic and thermal Free Energies=        -1382.951109

                     E (Thermal)             CV                S
                      KCal/Mol        Cal/Mol-Kelvin    Cal/Mol-Kelvin
 Total                  216.999             89.996            189.339
 Electronic               0.000              0.000              0.000
 Translational            0.889              2.981             43.570
 Rotational               0.889              2.981             36.173
 Vibrational            215.222             84.034            109.596
 Vibration     1          0.593              1.987              9.502
 Vibration     2          0.593              1.986              6.754
 Vibration     3          0.593              1.985              6.515
 Vibration     4          0.593              1.985              6.092
 Vibration     5          0.594              1.980              5.174
 Vibration     6          0.595              1.979              4.990
 Vibration     7          0.596              1.977              4.747
 Vibration     8          0.596              1.976              4.642
 Vibration     9          0.597              1.973              4.438
 Vibration    10          0.597              1.971              4.287
 Vibration    11          0.601              1.959              3.761
 Vibration    12          0.603              1.951              3.512
 Vibration    13          0.606              1.944              3.322
 Vibration    14          0.609              1.932              3.085
 Vibration    15          0.611              1.926              2.988
 Vibration    16          0.621              1.892              2.555
 Vibration    17          0.632              1.859              2.269
 Vibration    18          0.632              1.857              2.256
 Vibration    19          0.637              1.844              2.158
 Vibration    20          0.647              1.811              1.963
 Vibration    21          0.650              1.801              1.908
 Vibration    22          0.655              1.787              1.838
 Vibration    23          0.665              1.756              1.703
 Vibration    24          0.677              1.721              1.569
 Vibration    25          0.690              1.681              1.439
 Vibration    26          0.698              1.659              1.375
 Vibration    27          0.716              1.605              1.234
 Vibration    28          0.723              1.586              1.190
 Vibration    29          0.749              1.516              1.045
 Vibration    30          0.774              1.450              0.929
 Vibration    31          0.778              1.439              0.911
 Vibration    32          0.822              1.328              0.752
 Vibration    33          0.873              1.210              0.614
 Vibration    34          0.877              1.202              0.606
 Vibration    35          0.890              1.173              0.577
 Vibration    36          0.914              1.121              0.527
 Vibration    37          0.942              1.064              0.477
 Vibration    38          0.977              0.994              0.420

 Normal termination of Gaussian 09 at Tue Feb 19 14:49:46 2019.
