 Gaussian 09, Revision E.01,

 ----------------------------------------------------------------------
 # M062X/Gen 6D SCF=Tight INT(grid=ultrafine) OPT IOP(2/17=4) SCRF=(SMD
 ,Solvent=h2o) maxdisk=3221225472
 ----------------------------------------------------------------------

 --------------------------------------
 3TMF4Nitro_EtO.M062X_6-31pGd_opt_water
 --------------------------------------
 Symbolic Z-matrix:
 Charge = -1 Multiplicity = 1

 SCF Done:  E(RM062X) =  -1383.22194466     A.U. after   16 cycles
 SCF Done:  E(RM062X) =  -1383.26095653     A.U. after   14 cycles
 SCF Done:  E(RM062X) =  -1383.26699826     A.U. after   15 cycles
 SCF Done:  E(RM062X) =  -1383.26915284     A.U. after   17 cycles
 SCF Done:  E(RM062X) =  -1383.27177951     A.U. after   18 cycles
 SCF Done:  E(RM062X) =  -1383.27250955     A.U. after   17 cycles
 SCF Done:  E(RM062X) =  -1383.27208557     A.U. after   17 cycles
 SCF Done:  E(RM062X) =  -1383.27351824     A.U. after   12 cycles
 SCF Done:  E(RM062X) =  -1383.27447564     A.U. after   13 cycles
 SCF Done:  E(RM062X) =  -1383.27383685     A.U. after   14 cycles
 SCF Done:  E(RM062X) =  -1383.27554079     A.U. after   11 cycles
 SCF Done:  E(RM062X) =  -1383.27554095     A.U. after   10 cycles
 SCF Done:  E(RM062X) =  -1383.27554106     A.U. after   11 cycles
 SCF Done:  E(RM062X) =  -1383.27554110     A.U. after   11 cycles
 SCF Done:  E(RM062X) =  -1383.27554117     A.U. after   11 cycles
 SCF Done:  E(RM062X) =  -1383.27554120     A.U. after   10 cycles
 SCF Done:  E(RM062X) =  -1383.27554123     A.U. after    9 cycles
 SCF Done:  E(RM062X) =  -1383.27554125     A.U. after    8 cycles
 Optimization completed.
    -- Stationary point found.
 Normal termination of Gaussian 09 at Tue Feb 19 14:56:48 2019.
 Gaussian 09:  ES64L-G09RevE.01 30-Nov-2015

 ----------------------------------------------------------------------
 # M062X/Gen 6D SCF=Tight INT(grid=ultrafine) OPT IOP(2/17=4) SCRF=(SMD
 ,Solvent=h2o) Freq=Noraman maxdisk=3221225472 geom=check guess=read IO
 P(2/17=4)
 ----------------------------------------------------------------------

 --------------------------------------
 3TMF4Nitro_EtO.M062X_6-31pGd_opt_water
 --------------------------------------
 Structure from the checkpoint file:  "3TMF4Nitro_EtO.M062X_6-31pGd_opt_water.chk"
 Charge = -1 Multiplicity = 1

 SCF Done:  E(RM062X) =  -1383.27554125     A.U. after    2 cycles
 Optimization completed.
    -- Stationary point found.
 Normal termination of Gaussian 09 at Tue Feb 19 14:58:25 2019.

 ----------------------------------------------------------------------
 #N Geom=AllCheck Guess=TCheck SCRF=Check Test GenChk RM062X/ChkBas Fre
 q
 ----------------------------------------------------------------------

 Structure from the checkpoint file:  "3TMF4Nitro_EtO.M062X_6-31pGd_opt_water.chk"
 --------------------------------------
 3TMF4Nitro_EtO.M062X_6-31pGd_opt_water
 --------------------------------------
 Charge = -1 Multiplicity = 1

                         Standard orientation:
 ---------------------------------------------------------------------
 Center     Atomic      Atomic             Coordinates (Angstroms)
 Number     Number       Type             X           Y           Z
 ---------------------------------------------------------------------
      1          6           0       -5.843849   -3.648934   -0.072831
      2          6           0       -5.040766   -2.352420   -0.046198
      3          6           0       -3.545966   -2.635666   -0.016624
      4          7           0       -2.793657   -1.388680    0.012094
      5          6           0       -1.450641   -1.401788    0.030142
      6          8           0       -0.785082   -2.451413    0.043208
      7          7           0       -0.875333   -0.137655    0.038178
      8          6           0        0.463994    0.183440    0.024469
      9          6           0        1.510214   -0.763123    0.047798
     10          6           0        0.792696    1.551733    0.002091
     11          6           0        2.111487    1.956885   -0.024640
     12          6           0        3.134303    1.010839   -0.041629
     13          6           0        2.835946   -0.360045    0.007727
     14          1           0       -6.918624   -3.445471   -0.093624
     15          1           0       -5.632930   -4.258595    0.812821
     16          1           0       -5.596171   -4.244639   -0.958465
     17          1           0       -5.314502   -1.758066    0.834228
     18          1           0       -5.277208   -1.746075   -0.929184
     19          1           0       -3.257776   -3.220783   -0.899003
     20          1           0       -3.294621   -3.234829    0.866949
     21          1           0       -3.311309   -0.500691   -0.054063
     22          1           0       -1.525676    0.669143    0.050899
     23          1           0        1.272652   -1.813355    0.113109
     24          1           0       -0.000794    2.292885   -0.004432
     25          6           0        3.882363   -1.453151    0.101452
     26          9           0        3.337825   -2.611345    0.514869
     27          9           0        4.849166   -1.161027    0.988616
     28          9           0        4.471939   -1.722243   -1.075036
     29          7           0        4.488801    1.515979   -0.156708
     30          8           0        4.719625    2.648925    0.248075
     31          8           0        5.336311    0.803349   -0.676146
     32          1           0        2.359693    3.011509   -0.061716
     33          8           0       -4.407897    0.989561   -0.210258
     34          8           0       -2.532964    2.159273    0.121201
     35          6           0       -3.784644    2.079726   -0.043015
     36          6           0       -4.618617    3.357248   -0.044655
     37          6           0       -3.837888    4.645359    0.173978
     38          1           0       -5.389169    3.234531    0.725894
     39          1           0       -5.153755    3.385386   -1.001535
     40          1           0       -3.320393    4.635993    1.138271
     41          1           0       -4.512765    5.507015    0.160832
     42          1           0       -3.087438    4.791898   -0.609004
 ---------------------------------------------------------------------

 SCF Done:  E(RM062X) =  -1383.27554125     A.U. after    1 cycles

 The electronic state is 1-A.
 Alpha  occ. eigenvalues --  -25.30993 -25.30956 -25.30762 -19.70109 -19.70007
 Alpha  occ. eigenvalues --  -19.62184 -19.60767 -19.60333 -15.03341 -14.79807
 Alpha  occ. eigenvalues --  -14.77577 -10.82679 -10.69004 -10.65129 -10.63097
 Alpha  occ. eigenvalues --  -10.62697 -10.61319 -10.58605 -10.57722 -10.57309
 Alpha  occ. eigenvalues --  -10.57235 -10.53879 -10.53661 -10.52792 -10.52616
 Alpha  occ. eigenvalues --   -1.47754  -1.38708  -1.38289  -1.38132  -1.19771
 Alpha  occ. eigenvalues --   -1.18033  -1.16606  -1.06910  -1.06391  -1.02946
 Alpha  occ. eigenvalues --   -1.00342  -0.91541  -0.90621  -0.87560  -0.85761
 Alpha  occ. eigenvalues --   -0.83065  -0.80718  -0.76729  -0.74470  -0.72262
 Alpha  occ. eigenvalues --   -0.71974  -0.70104  -0.69559  -0.69074  -0.68008
 Alpha  occ. eigenvalues --   -0.66836  -0.65009  -0.64245  -0.63275  -0.61693
 Alpha  occ. eigenvalues --   -0.59785  -0.58794  -0.58136  -0.57829  -0.55564
 Alpha  occ. eigenvalues --   -0.54946  -0.54391  -0.53997  -0.53697  -0.53139
 Alpha  occ. eigenvalues --   -0.52804  -0.52147  -0.52043  -0.51897  -0.51228
 Alpha  occ. eigenvalues --   -0.50353  -0.49419  -0.48404  -0.47749  -0.46304
 Alpha  occ. eigenvalues --   -0.46188  -0.45080  -0.44364  -0.43646  -0.41754
 Alpha  occ. eigenvalues --   -0.41419  -0.41238  -0.40640  -0.39860  -0.39627
 Alpha  occ. eigenvalues --   -0.39554  -0.39297  -0.38718  -0.35826  -0.34147
 Alpha  occ. eigenvalues --   -0.33925  -0.32922  -0.32502  -0.32367  -0.28106
 Alpha virt. eigenvalues --   -0.06811  -0.00695   0.01741   0.02181   0.02818
 Alpha virt. eigenvalues --    0.03059   0.03826   0.03861   0.04279   0.04338
 Alpha virt. eigenvalues --    0.05309   0.05391   0.05709   0.06005   0.06564

 Mulliken charges:
               1
     1  C   -0.816719
     2  C   -0.371732
     3  C   -0.195009
     4  N   -0.781081
     5  C    0.888169
     6  O   -0.721783
     7  N   -0.654800
     8  C    0.060336
     9  C    0.510454
    10  C   -0.894838
    11  C    0.091252
    12  C   -1.428287
    13  C    0.181337
    14  H    0.223173
    15  H    0.221412
    16  H    0.221712
    17  H    0.237362
    18  H    0.237018
    19  H    0.240825
    20  H    0.241681
    21  H    0.527882
    22  H    0.533138
    23  H    0.308915
    24  H    0.288276
    25  C    1.740116
    26  F   -0.339002
    27  F   -0.296648
    28  F   -0.260917
    29  N   -0.194976
    30  O   -0.097897
    31  O   -0.116976
    32  H    0.295447
    33  O   -0.767538
    34  O   -0.790779
    35  C    0.803342
    36  C   -0.540328
    37  C   -0.739487
    38  H    0.245464
    39  H    0.246227
    40  H    0.223305
    41  H    0.219196
    42  H    0.222759
 Sum of Mulliken charges =  -1.00000

 Dipole moment (field-independent basis, Debye):
    X=             -1.5464    Y=              0.0470    Z=              0.2526  Tot=              1.5676
 Quadrupole moment (field-independent basis, Debye-Ang):
   XX=           -233.0005   YY=           -166.3057   ZZ=           -150.1229
   XY=              3.8055   XZ=              0.7576   YZ=             -1.5587

  Exact polarizability: 424.122  45.568 331.613  -4.921   8.176 200.653
 Approx polarizability: 326.540  22.067 276.691  -4.610   9.279 178.637

                      1                      2                      3
                      A                      A                      A
 Frequencies --     15.6974                23.2376                24.2522
 Red. masses --      7.4187                 5.7180                 4.6371
 Frc consts  --      0.0011                 0.0018                 0.0016
 IR Inten    --      0.0240                 0.5702                 2.1001

                      4                      5                      6
                      A                      A                      A
 Frequencies --     39.7262                43.8345                48.1306
 Red. masses --      1.9874                10.4805                 5.3280
 Frc consts  --      0.0018                 0.0119                 0.0073
 IR Inten    --      1.0305                 3.3600                 0.5546

                      7                      8                      9
                      A                      A                      A
 Frequencies --     60.3158                64.7674                65.7718
 Red. masses --      4.5543                 4.2826                 4.4063
 Frc consts  --      0.0098                 0.0106                 0.0112
 IR Inten    --      7.0195                 0.8098                 2.4081

                     10                     11                     12
                      A                      A                      A
 Frequencies --     71.5546                76.3391                94.3795
 Red. masses --      4.2700                 5.2753                 4.0960
 Frc consts  --      0.0129                 0.0181                 0.0215
 IR Inten    --      7.5421                15.9851                18.4662

                     13                     14                     15
                      A                      A                      A
 Frequencies --    103.1826               112.1472               121.0390
 Red. masses --      7.6346                 5.3191                 6.2086
 Frc consts  --      0.0479                 0.0394                 0.0536
 IR Inten    --      8.8888                13.2692                12.7143

                     16                     17                     18
                      A                      A                      A
 Frequencies --    154.0079               162.5056               175.6267
 Red. masses --      6.0880                 5.3830                 3.7871
 Frc consts  --      0.0851                 0.0838                 0.0688
 IR Inten    --      3.9026                18.0820                11.1776

                     19                     20                     21
                      A                      A                      A
 Frequencies --    194.6275               225.4391               242.8112
 Red. masses --     12.1006                 7.3800                 1.0937
 Frc consts  --      0.2701                 0.2210                 0.0380
 IR Inten    --      1.1501                 3.1137                 1.5754

                     22                     23                     24
                      A                      A                      A
 Frequencies --    245.5523               250.7249               273.1541
 Red. masses --      1.1397                 5.4853                 9.0149
 Frc consts  --      0.0405                 0.2032                 0.3963
 IR Inten    --      0.2498                10.4602                 3.0037

                     25                     26                     27
                      A                      A                      A
 Frequencies --    294.2974               301.3061               331.1769
 Red. masses --      7.7872                 4.1382                 7.5524
 Frc consts  --      0.3974                 0.2214                 0.4880
 IR Inten    --      4.0194                15.4813                 1.8823

                     28                     29                     30
                      A                      A                      A
 Frequencies --    350.7747               377.3591               406.3391
 Red. masses --      4.9660                 9.9651                 7.1720
 Frc consts  --      0.3600                 0.8361                 0.6977
 IR Inten    --     23.9040                 5.5291                 0.9181

                     31                     32                     33
                      A                      A                      A
 Frequencies --    411.7895               458.6865               516.4791
 Red. masses --      5.4533                 3.6319                 6.1577
 Frc consts  --      0.5448                 0.4502                 0.9678
 IR Inten    --     14.5145                 8.2225                22.2819

                     34                     35                     36
                      A                      A                      A
 Frequencies --    519.2952               531.0409               558.8397
 Red. masses --      5.7118                12.6167                 7.6433
 Frc consts  --      0.9075                 2.0963                 1.4064
 IR Inten    --     29.5082                 9.7971                16.7942

                     37                     38                     39
                      A                      A                      A
 Frequencies --    581.0344               615.9999               654.1351
 Red. masses --      1.9085                 6.4654                 3.6839
 Frc consts  --      0.3796                 1.4455                 0.9287
 IR Inten    --      0.7405                 2.1987                85.4744

                     40                     41                     42
                      A                      A                      A
 Frequencies --    657.3089               661.4061               665.0286
 Red. masses --      1.8570                 2.7173                 5.0333
 Frc consts  --      0.4727                 0.7004                 1.3115
 IR Inten    --     91.4282                62.9610                24.6415

                     43                     44                     45
                      A                      A                      A
 Frequencies --    691.7447               717.9907               761.7322
 Red. masses --      7.4908                 5.2828                 1.2604
 Frc consts  --      2.1119                 1.6046                 0.4309
 IR Inten    --     24.1939                23.4023                21.3058

                     46                     47                     48
                      A                      A                      A
 Frequencies --    771.5754               775.5707               779.6751
 Red. masses --      6.8057                 3.3362                 5.7606
 Frc consts  --      2.3872                 1.1823                 2.0632
 IR Inten    --     17.2685                12.4523                21.3970

                     49                     50                     51
                      A                      A                      A
 Frequencies --    789.6408               819.1016               842.7505
 Red. masses --      6.6941                 1.4863                 1.1406
 Frc consts  --      2.4592                 0.5875                 0.4773
 IR Inten    --     20.6112                16.9251               152.0352

                     52                     53                     54
                      A                      A                      A
 Frequencies --    870.9499               872.8983               886.1928
 Red. masses --      9.1580                 1.6013                 3.8699
 Frc consts  --      4.0929                 0.7188                 1.7906
 IR Inten    --     80.0061               129.6486                36.6160

                     55                     56                     57
                      A                      A                      A
 Frequencies --    906.9600               918.2817               928.6249
 Red. masses --      1.1534                 1.4777                 1.7906
 Frc consts  --      0.5590                 0.7342                 0.9098
 IR Inten    --      0.5101                51.4095                 2.8313

                     58                     59                     60
                      A                      A                      A
 Frequencies --    959.1932              1005.5016              1028.2727
 Red. masses --      4.7278                 1.3317                 1.6519
 Frc consts  --      2.5628                 0.7933                 1.0291
 IR Inten    --      9.1243                 2.9113                14.4146

                     61                     62                     63
                      A                      A                      A
 Frequencies --   1049.2687              1062.8840              1084.2024
 Red. masses --      4.5990                 4.2952                 2.5350
 Frc consts  --      2.9833                 2.8590                 1.7557
 IR Inten    --    137.0471               165.7770                12.0333

                     64                     65                     66
                      A                      A                      A
 Frequencies --   1109.2199              1112.4298              1151.2911
 Red. masses --      1.7865                 2.3469                 2.5271
 Frc consts  --      1.2950                 1.7112                 1.9736
 IR Inten    --      1.9421                15.5394                62.9234

                     67                     68                     69
                      A                      A                      A
 Frequencies --   1162.0835              1175.3407              1180.6555
 Red. masses --      1.9182                 3.5732                 1.6102
 Frc consts  --      1.5262                 2.9082                 1.3225
 IR Inten    --    385.8665                 0.1837                 0.2094

                     70                     71                     72
                      A                      A                      A
 Frequencies --   1183.4802              1188.6705              1219.7301
 Red. masses --      9.5949                 7.4359                 1.9369
 Frc consts  --      7.9179                 6.1903                 1.6978
 IR Inten    --    503.8654               614.7270                38.9329

                     73                     74                     75
                      A                      A                      A
 Frequencies --   1280.6444              1284.4457              1292.9146
 Red. masses --      1.2033                 2.3464                 1.1684
 Frc consts  --      1.1627                 2.2808                 1.1508
 IR Inten    --     23.7100              1301.5704                 0.3416

                     76                     77                     78
                      A                      A                      A
 Frequencies --   1304.6214              1307.6476              1328.7013
 Red. masses --      1.4724                 2.6040                 1.0739
 Frc consts  --      1.4765                 2.6235                 1.1170
 IR Inten    --    389.6967               308.0594                 1.7917

                     79                     80                     81
                      A                      A                      A
 Frequencies --   1338.8523              1340.6476              1361.7923
 Red. masses --      1.7559                 1.9682                 2.5213
 Frc consts  --      1.8545                 2.0843                 2.7549
 IR Inten    --    118.1060               200.9706               452.6469

                     82                     83                     84
                      A                      A                      A
 Frequencies --   1395.4433              1419.9001              1420.7583
 Red. masses --      5.2970                 1.3281                 1.3173
 Frc consts  --      6.0772                 1.5776                 1.5667
 IR Inten    --   1296.1198                35.7640                46.3121

                     85                     86                     87
                      A                      A                      A
 Frequencies --   1428.4364              1438.7576              1455.1530
 Red. masses --      2.0803                 3.3886                 1.3558
 Frc consts  --      2.5009                 4.1328                 1.6915
 IR Inten    --    353.4385               417.7004               168.3362

                     88                     89                     90
                      A                      A                      A
 Frequencies --   1473.8257              1484.8686              1489.9695
 Red. masses --      2.6839                 5.8062                 1.0589
 Frc consts  --      3.4349                 7.5426                 1.3850
 IR Inten    --    243.7386               153.2166                 6.3651

                     91                     92                     93
                      A                      A                      A
 Frequencies --   1500.8196              1504.0904              1507.3118
 Red. masses --      1.0397                 1.0400                 1.1296
 Frc consts  --      1.3798                 1.3862                 1.5121
 IR Inten    --     11.1084                11.5096                86.0895

                     94                     95                     96
                      A                      A                      A
 Frequencies --   1512.4651              1529.3712              1549.0840
 Red. masses --      1.0826                 1.0949                 2.8991
 Frc consts  --      1.4591                 1.5089                 4.0989
 IR Inten    --      1.5520                43.5096               347.3247

                     97                     98                     99
                      A                      A                      A
 Frequencies --   1555.3607              1596.2520              1608.0037
 Red. masses --      6.1088                 6.4964                 1.9844
 Frc consts  --      8.7070                 9.7527                 3.0232
 IR Inten    --    590.8058              1165.4144              1842.6363

                    100                    101                    102
                      A                      A                      A
 Frequencies --   1622.8715              1664.0335              1690.8149
 Red. masses --      3.8221                 7.7877                 6.3289
 Frc consts  --      5.9309                12.7052                10.6603
 IR Inten    --    112.2254               202.4224               226.7475

                    103                    104                    105
                      A                      A                      A
 Frequencies --   1725.5354              3069.9823              3075.9517
 Red. masses --      2.1599                 1.0591                 1.0439
 Frc consts  --      3.7890                 5.8808                 5.8191
 IR Inten    --    673.5628                18.7461                13.8783

                    106                    107                    108
                      A                      A                      A
 Frequencies --   3077.4397              3083.6704              3084.8836
 Red. masses --      1.0514                 1.0509                 1.0470
 Frc consts  --      5.8670                 5.8878                 5.8706
 IR Inten    --    137.4448                57.1682                11.7520

                    109                    110                    111
                      A                      A                      A
 Frequencies --   3101.7078              3120.5498              3121.4410
 Red. masses --      1.1041                 1.1015                 1.1064
 Frc consts  --      6.2585                 6.3196                 6.3516
 IR Inten    --      6.8177                 8.0686                54.4690

                    112                    113                    114
                      A                      A                      A
 Frequencies --   3146.3187              3154.7733              3155.1229
 Red. masses --      1.1039                 1.1024                 1.1023
 Frc consts  --      6.4385                 6.4642                 6.4650
 IR Inten    --     94.7711                65.3055                48.9068

                    115                    116                    117
                      A                      A                      A
 Frequencies --   3159.2374              3178.6328              3250.5196
 Red. masses --      1.1036                 1.0907                 1.0919
 Frc consts  --      6.4897                 6.4926                 6.7972
 IR Inten    --     57.8862              1443.1424                 3.5293

                    118                    119                    120
                      A                      A                      A
 Frequencies --   3270.6063              3302.6205              3322.5682
 Red. masses --      1.0950                 1.0884                 1.0913
 Frc consts  --      6.9010                 6.9942                 7.0981
 IR Inten    --      8.3250              1587.0051                43.3509

 - Thermochemistry -
 -------------------
 Temperature   298.150 Kelvin.  Pressure   1.00000 Atm.
 Atom     1 has atomic number  6 and mass  12.00000

 Molecular mass:   364.11203 amu.
 Principal axes and moments of inertia in atomic units:
                           1         2         3
     Eigenvalues --  6195.94144********************
           X            0.99990   0.01430  -0.00017
           Y           -0.01430   0.99990   0.00226
           Z            0.00020  -0.00226   1.00000
 This molecule is an asymmetric top.
 Rotational symmetry number  1.
 Warning -- assumption of classical behavior for rotation
           may cause significant error
 Rotational temperatures (Kelvin)      0.01398     0.00484     0.00366
 Rotational constants (GHZ):           0.29128     0.10075     0.07630
 Zero-point vibrational energy     836647.0 (Joules/Mol)
                                  199.96343 (Kcal/Mol)
 Warning -- explicit consideration of  38 degrees of freedom as
           vibrations may cause significant error
 Vibrational temperatures:     22.59    33.43    34.89    57.16    63.07
          (Kelvin)             69.25    86.78    93.19    94.63   102.95
                              109.83   135.79   148.46   161.35   174.15
                              221.58   233.81   252.69   280.03   324.36
                              349.35   353.29   360.74   393.01   423.43
                              433.51   476.49   504.69   542.93   584.63
                              592.47   659.95   743.10   747.15   764.05
                              804.04   835.98   886.29   941.15   945.72
                              951.61   956.83   995.27  1033.03  1095.96
                             1110.12  1115.87  1121.78  1136.12  1178.50
                             1212.53  1253.10  1255.90  1275.03  1304.91
                             1321.20  1336.08  1380.06  1446.69  1479.45
                             1509.66  1529.25  1559.92  1595.92  1600.54
                             1656.45  1671.98  1691.05  1698.70  1702.76
                             1710.23  1754.92  1842.56  1848.03  1860.21
                             1877.06  1881.41  1911.70  1926.31  1928.89
                             1959.31  2007.73  2042.92  2044.15  2055.20
                             2070.05  2093.64  2120.50  2136.39  2143.73
                             2159.34  2164.05  2168.68  2176.10  2200.42
                             2228.78  2237.81  2296.65  2313.56  2334.95
                             2394.17  2432.70  2482.66  4417.01  4425.60
                             4427.74  4436.71  4438.45  4462.66  4489.77
                             4491.05  4526.85  4539.01  4539.51  4545.43
                             4573.34  4676.77  4705.67  4751.73  4780.43

 Zero-point correction=                           0.318662 (Hartree/Particle)
 Thermal correction to Energy=                    0.344600
 Thermal correction to Enthalpy=                  0.345544
 Thermal correction to Gibbs Free Energy=         0.257359
 Sum of electronic and zero-point Energies=          -1382.956879
 Sum of electronic and thermal Energies=             -1382.930941
 Sum of electronic and thermal Enthalpies=           -1382.929997
 Sum of electronic and thermal Free Energies=        -1383.018182

                     E (Thermal)             CV                S
                      KCal/Mol        Cal/Mol-Kelvin    Cal/Mol-Kelvin
 Total                  216.240             90.864            185.601
 Electronic               0.000              0.000              0.000
 Translational            0.889              2.981             43.570
 Rotational               0.889              2.981             36.216
 Vibrational            214.462             84.902            105.815
 Vibration     1          0.593              1.986              7.115
 Vibration     2          0.593              1.985              6.336
 Vibration     3          0.593              1.985              6.251
 Vibration     4          0.594              1.981              5.273
 Vibration     5          0.595              1.980              5.078
 Vibration     6          0.595              1.978              4.893
 Vibration     7          0.597              1.973              4.447
 Vibration     8          0.597              1.971              4.306
 Vibration     9          0.597              1.971              4.276
 Vibration    10          0.598              1.968              4.110
 Vibration    11          0.599              1.965              3.983
 Vibration    12          0.603              1.953              3.567
 Vibration    13          0.605              1.947              3.393
 Vibration    14          0.607              1.939              3.231
 Vibration    15          0.609              1.932              3.084
 Vibration    16          0.620              1.898              2.622
 Vibration    17          0.623              1.888              2.520
 Vibration    18          0.628              1.872              2.374
 Vibration    19          0.635              1.847              2.183
 Vibration    20          0.650              1.802              1.915
 Vibration    21          0.659              1.775              1.782
 Vibration    22          0.660              1.770              1.762
 Vibration    23          0.663              1.762              1.725
 Vibration    24          0.676              1.723              1.576
 Vibration    25          0.689              1.684              1.449
 Vibration    26          0.693              1.671              1.410
 Vibration    27          0.714              1.613              1.254
 Vibration    28          0.728              1.574              1.163
 Vibration    29          0.748              1.518              1.050
 Vibration    30          0.771              1.456              0.940
 Vibration    31          0.776              1.445              0.920
 Vibration    32          0.817              1.342              0.770
 Vibration    33          0.872              1.213              0.618
 Vibration    34          0.874              1.207              0.612
 Vibration    35          0.886              1.181              0.585
 Vibration    36          0.914              1.120              0.526
 Vibration    37          0.938              1.072              0.483
 Vibration    38          0.976              0.998              0.423

 Normal termination of Gaussian 09 at Tue Feb 19 16:01:26 2019.
