 Gaussian 09, Revision E.01,

 ----------------------------------------------------------------------
 # M062X/Gen 6D SCF=Tight INT(grid=ultrafine) OPT IOP(2/17=4) SCRF=(SMD
 ,Solvent=h2o) maxdisk=2147483648
 ----------------------------------------------------------------------

 -----------------------------------------
 4SulfOxyMethyl_a1.M062X_6-31pGd_opt_water
 -----------------------------------------
 Symbolic Z-matrix:
 Charge = -1 Multiplicity = 1

 SCF Done:  E(RM062X) =  -1161.30139419     A.U. after   16 cycles
 SCF Done:  E(RM062X) =  -1161.34103682     A.U. after   16 cycles
 SCF Done:  E(RM062X) =  -1161.35382845     A.U. after   15 cycles
 SCF Done:  E(RM062X) =  -1161.35572678     A.U. after   15 cycles
 SCF Done:  E(RM062X) =  -1161.35691989     A.U. after   15 cycles
 SCF Done:  E(RM062X) =  -1161.35775009     A.U. after   14 cycles
 SCF Done:  E(RM062X) =  -1161.35816886     A.U. after   17 cycles
 SCF Done:  E(RM062X) =  -1161.35855182     A.U. after   14 cycles
 SCF Done:  E(RM062X) =  -1161.35877415     A.U. after   14 cycles
 SCF Done:  E(RM062X) =  -1161.35889158     A.U. after   14 cycles
 SCF Done:  E(RM062X) =  -1161.35981540     A.U. after   14 cycles
 SCF Done:  E(RM062X) =  -1161.35981656     A.U. after   14 cycles
 SCF Done:  E(RM062X) =  -1161.35982233     A.U. after   13 cycles
 SCF Done:  E(RM062X) =  -1161.35982237     A.U. after   11 cycles
 SCF Done:  E(RM062X) =  -1161.35982260     A.U. after   11 cycles
 SCF Done:  E(RM062X) =  -1161.35982268     A.U. after   11 cycles
 SCF Done:  E(RM062X) =  -1161.35982263     A.U. after   11 cycles
 SCF Done:  E(RM062X) =  -1161.35982266     A.U. after   10 cycles
 Optimization completed.
    -- Stationary point found.
 Normal termination of Gaussian 09 at Tue Oct 30 14:44:46 2018.
 Gaussian 09:  ES64L-G09RevE.01 30-Nov-2015

 ----------------------------------------------------------------------
 # M062X/Gen 6D SCF=Tight INT(grid=ultrafine) OPT IOP(2/17=4) SCRF=(SMD
 ,Solvent=h2o) Freq=Noraman maxdisk=2147483648 geom=check guess=read IO
 P(2/17=4)
 ----------------------------------------------------------------------

 -----------------------------------------
 4SulfOxyMethyl_a1.M062X_6-31pGd_opt_water
 -----------------------------------------
 Structure from the checkpoint file:  "4SulfOxyMethyl_a1.M062X_6-31pGd_opt_water.chk"
 Charge = -1 Multiplicity = 1

 SCF Done:  E(RM062X) =  -1161.35982266     A.U. after    2 cycles
 Optimization completed.
    -- Stationary point found.
 Normal termination of Gaussian 09 at Tue Oct 30 14:46:05 2018.

 ----------------------------------------------------------------------
 #N Geom=AllCheck Guess=TCheck SCRF=Check Test GenChk RM062X/ChkBas Fre
 q
 ----------------------------------------------------------------------

 Structure from the checkpoint file:  "4SulfOxyMethyl_a1.M062X_6-31pGd_opt_water.chk"
 -----------------------------------------
 4SulfOxyMethyl_a1.M062X_6-31pGd_opt_water
 -----------------------------------------
 Charge = -1 Multiplicity = 1

                         Standard orientation:
 ---------------------------------------------------------------------
 Center     Atomic      Atomic             Coordinates (Angstroms)
 Number     Number       Type             X           Y           Z
 ---------------------------------------------------------------------
      1          6           0        7.497156   -0.296620    0.148125
      2          6           0        6.231734    0.344435   -0.413444
      3          6           0        4.978548   -0.322290    0.135328
      4          7           0        3.782193    0.317749   -0.396188
      5          6           0        2.531925   -0.066676    0.055861
      6          8           0        2.419691   -1.200240    0.603818
      7          7           0        1.572903    0.861471   -0.126276
      8          6           0        0.251067    0.526307   -0.023704
      9          6           0       -0.302539   -0.760786   -0.272091
     10          6           0       -0.667991    1.569973    0.271591
     11          6           0       -2.031917    1.353986    0.336730
     12          6           0       -2.534806    0.068377    0.102491
     13          6           0       -1.669262   -0.982151   -0.216782
     14          1           0        8.394934    0.182068   -0.254695
     15          1           0        7.541477   -1.361958   -0.104711
     16          1           0        7.529792   -0.208760    1.239855
     17          1           0        6.228861    0.273396   -1.508042
     18          1           0        6.212597    1.412730   -0.161171
     19          1           0        4.988803   -0.279799    1.235058
     20          1           0        4.972126   -1.380596   -0.144669
     21          1           0        3.867322    1.313075   -0.572424
     22          1           0        0.353461   -1.583755   -0.527699
     23          1           0       -0.272063    2.564954    0.454820
     24          1           0       -2.704333    2.173693    0.575111
     25         16           0       -4.268192   -0.201478    0.112629
     26          8           0       -4.897139    0.768370    1.034657
     27          8           0       -4.526548   -1.635497    0.358974
     28          1           0       -2.065455   -1.973519   -0.420041
     29          6           0       -4.841296    0.173456   -1.528369
     30          1           0       -4.602683    1.216688   -1.745777
     31          1           0       -5.922245    0.010366   -1.535899
     32          1           0       -4.340956   -0.498596   -2.228530
 ---------------------------------------------------------------------

 SCF Done:  E(RM062X) =  -1161.35982266     A.U. after    1 cycles

 The electronic state is 1-A.
 Alpha  occ. eigenvalues --  -90.14850 -19.64721 -19.64696 -19.59669 -14.75807
 Alpha  occ. eigenvalues --  -14.71410 -10.65094 -10.59019 -10.57502 -10.57398
 Alpha  occ. eigenvalues --  -10.56643 -10.56634 -10.56435 -10.54499 -10.54458
 Alpha  occ. eigenvalues --  -10.53638 -10.52709  -8.46262  -6.38461  -6.38362
 Alpha  occ. eigenvalues --   -6.38285  -1.23159  -1.14075  -1.12409  -1.01102
 Alpha  occ. eigenvalues --   -0.99424  -0.95051  -0.88297  -0.86872  -0.84808
 Alpha  occ. eigenvalues --   -0.83013  -0.76729  -0.73081  -0.69625  -0.67375
 Alpha  occ. eigenvalues --   -0.66464  -0.63386  -0.60814  -0.58335  -0.56596
 Alpha  occ. eigenvalues --   -0.56105  -0.54230  -0.53633  -0.52195  -0.51345
 Alpha  occ. eigenvalues --   -0.50545  -0.49677  -0.49509  -0.48980  -0.48197
 Alpha  occ. eigenvalues --   -0.46272  -0.45700  -0.44999  -0.43621  -0.41534
 Alpha  occ. eigenvalues --   -0.41298  -0.40860  -0.40321  -0.39098  -0.38703
 Alpha  occ. eigenvalues --   -0.38382  -0.36961  -0.36421  -0.34313  -0.31575
 Alpha  occ. eigenvalues --   -0.30693  -0.29927  -0.24168
 Alpha virt. eigenvalues --   -0.00090   0.01840   0.02028   0.03032   0.03929
 Alpha virt. eigenvalues --    0.04002   0.04167   0.04648   0.04915   0.05361
 Alpha virt. eigenvalues --    0.05892   0.06242   0.06970   0.07352   0.07758

 Mulliken charges:
               1
     1  C   -0.747109
     2  C   -0.366220
     3  C   -0.378716
     4  N   -0.602407
     5  C    0.851234
     6  O   -0.837964
     7  N   -0.628764
     8  C    0.185093
     9  C    0.341307
    10  C   -0.687314
    11  C    0.158251
    12  C   -1.023054
    13  C   -0.691778
    14  H    0.220387
    15  H    0.219531
    16  H    0.220086
    17  H    0.228452
    18  H    0.223639
    19  H    0.210426
    20  H    0.223953
    21  H    0.435350
    22  H    0.244024
    23  H    0.240249
    24  H    0.266189
    25  S    1.505069
    26  O   -0.615399
    27  O   -0.623290
    28  H    0.265766
    29  C   -0.754643
    30  H    0.305669
    31  H    0.307214
    32  H    0.304770
 Sum of Mulliken charges =  -1.00000

 Dipole moment (field-independent basis, Debye):
    X=              1.8922    Y=              4.1415    Z=             -6.8827  Tot=              8.2526
 Quadrupole moment (field-independent basis, Debye-Ang):
   XX=           -145.1988   YY=           -120.6456   ZZ=           -115.9260
   XY=             -0.6781   XZ=             24.5877   YZ=              4.2630

  Exact polarizability: 381.411  -0.427 251.344  -6.665   3.904 187.484
 Approx polarizability: 277.477   1.379 218.933  -8.543   4.428 161.418

                      1                      2                      3
                      A                      A                      A
 Frequencies --     23.1819                28.8811                32.9848
 Red. masses --      4.5878                 3.9393                 3.2310
 Frc consts  --      0.0015                 0.0019                 0.0021
 IR Inten    --      6.9704                 5.5921                 4.2774

                      4                      5                      6
                      A                      A                      A
 Frequencies --     46.8333                76.0844                81.4205
 Red. masses --      2.6963                 3.6371                 4.6710
 Frc consts  --      0.0035                 0.0124                 0.0182
 IR Inten    --      1.7210                16.0427                 3.8184

                      7                      8                      9
                      A                      A                      A
 Frequencies --    105.1671               143.0554               164.9763
 Red. masses --      4.3800                 4.8297                 3.3570
 Frc consts  --      0.0285                 0.0582                 0.0538
 IR Inten    --      0.9925                 9.0506                32.5296

                     10                     11                     12
                      A                      A                      A
 Frequencies --    181.7864               224.1348               229.2146
 Red. masses --      4.9754                 4.6431                 2.2214
 Frc consts  --      0.0969                 0.1374                 0.0688
 IR Inten    --      0.1715                10.8113                 1.8908

                     13                     14                     15
                      A                      A                      A
 Frequencies --    240.9285               250.7214               314.0847
 Red. masses --      1.4222                 1.1771                 4.6590
 Frc consts  --      0.0486                 0.0436                 0.2708
 IR Inten    --      0.4547                 2.6348                 0.4976

                     16                     17                     18
                      A                      A                      A
 Frequencies --    321.6683               340.2482               360.8127
 Red. masses --      4.4060                 4.5766                 5.3520
 Frc consts  --      0.2686                 0.3122                 0.4105
 IR Inten    --     27.0330                17.0717                 2.1118

                     19                     20                     21
                      A                      A                      A
 Frequencies --    381.1477               419.8681               442.1334
 Red. masses --      6.9124                 3.0453                 4.8716
 Frc consts  --      0.5917                 0.3163                 0.5611
 IR Inten    --     39.2271                 3.6506                26.3661

                     22                     23                     24
                      A                      A                      A
 Frequencies --    466.8312               479.2385               517.7276
 Red. masses --      3.3583                 6.3535                 2.6041
 Frc consts  --      0.4312                 0.8597                 0.4112
 IR Inten    --     24.8076                58.9668               377.7151

                     25                     26                     27
                      A                      A                      A
 Frequencies --    531.6350               565.1945               632.8622
 Red. masses --      2.6671                 2.2614                 6.9233
 Frc consts  --      0.4441                 0.4256                 1.6337
 IR Inten    --     55.1403               162.6083                 2.0878

                     28                     29                     30
                      A                      A                      A
 Frequencies --    688.6668               720.1630               755.2576
 Red. masses --      5.8583                 3.4780                 1.5084
 Frc consts  --      1.6370                 1.0628                 0.5070
 IR Inten    --     48.6447                25.0359               104.7216

                     31                     32                     33
                      A                      A                      A
 Frequencies --    762.7583               785.2687               801.7698
 Red. masses --      2.3450                 6.4205                 5.8217
 Frc consts  --      0.8038                 2.3327                 2.2049
 IR Inten    --    178.1423                84.5411               125.8423

                     34                     35                     36
                      A                      A                      A
 Frequencies --    833.7405               849.1647               875.9523
 Red. masses --      1.2834                 2.5313                 3.5589
 Frc consts  --      0.5256                 1.0754                 1.6089
 IR Inten    --     13.3297                88.7574                32.3469

                     37                     38                     39
                      A                      A                      A
 Frequencies --    904.9753               933.6882               981.8689
 Red. masses --      1.1615                 1.6520                 1.3079
 Frc consts  --      0.5605                 0.8485                 0.7429
 IR Inten    --     22.4320                 0.6916                 5.4470

                     40                     41                     42
                      A                      A                      A
 Frequencies --    996.6829               997.4616              1000.6769
 Red. masses --      1.3629                 1.3413                 1.3637
 Frc consts  --      0.7977                 0.7863                 0.8046
 IR Inten    --     99.9603                 7.4040               126.3260

                     43                     44                     45
                      A                      A                      A
 Frequencies --   1009.2317              1031.7156              1080.0575
 Red. masses --      3.3163                 4.9460                 2.5719
 Frc consts  --      1.9901                 3.1018                 1.7677
 IR Inten    --    127.7073                84.7219                76.8623

                     46                     47                     48
                      A                      A                      A
 Frequencies --   1089.3110              1124.8592              1137.4275
 Red. masses --      6.9078                 2.7169                 1.3873
 Frc consts  --      4.8294                 2.0255                 1.0574
 IR Inten    --    316.3819              1076.3970                65.6292

                     49                     50                     51
                      A                      A                      A
 Frequencies --   1143.9286              1167.5504              1184.5732
 Red. masses --      1.8914                 1.8349                 2.7684
 Frc consts  --      1.4583                 1.4737                 2.2887
 IR Inten    --     80.6945                 6.1948                28.1089

                     52                     53                     54
                      A                      A                      A
 Frequencies --   1201.5532              1234.2321              1262.6034
 Red. masses --      1.3029                15.4616                 1.5349
 Frc consts  --      1.1083                13.8771                 1.4417
 IR Inten    --     11.2868               567.6534               120.5719

                     55                     56                     57
                      A                      A                      A
 Frequencies --   1282.9344              1317.6222              1324.5315
 Red. masses --      1.5158                 1.3786                 1.0905
 Frc consts  --      1.4700                 1.4102                 1.1272
 IR Inten    --    416.2033                 1.1210                22.7001

                     58                     59                     60
                      A                      A                      A
 Frequencies --   1339.4154              1342.1518              1373.5195
 Red. masses --      1.8314                 3.4407                 1.2324
 Frc consts  --      1.9358                 3.6517                 1.3698
 IR Inten    --     52.9784                24.8447                78.6919

                     61                     62                     63
                      A                      A                      A
 Frequencies --   1390.7654              1420.9137              1435.8812
 Red. masses --      2.7413                 1.3167                 2.0029
 Frc consts  --      3.1240                 1.5663                 2.4330
 IR Inten    --   1335.5244               120.8227               640.0311

                     64                     65                     66
                      A                      A                      A
 Frequencies --   1452.2353              1454.7711              1470.1819
 Red. masses --      1.0467                 1.0480                 3.9227
 Frc consts  --      1.3006                 1.3068                 4.9954
 IR Inten    --     10.3186                12.8625               230.2704

                     67                     68                     69
                      A                      A                      A
 Frequencies --   1486.5948              1492.0640              1503.1385
 Red. masses --      1.4948                 1.3422                 1.0401
 Frc consts  --      1.9464                 1.7605                 1.3845
 IR Inten    --    501.4918               386.7905                11.7407

                     70                     71                     72
                      A                      A                      A
 Frequencies --   1512.9118              1527.3887              1531.7686
 Red. masses --      1.1376                 2.5887                 1.2186
 Frc consts  --      1.5341                 3.5582                 1.6845
 IR Inten    --    158.5337               991.2141                10.3961

                     73                     74                     75
                      A                      A                      A
 Frequencies --   1561.9865              1613.5412              1663.2650
 Red. masses --      3.8513                 7.0791                 6.2409
 Frc consts  --      5.5363                10.8589                10.1723
 IR Inten    --    679.6074                86.9241               252.2723

                     76                     77                     78
                      A                      A                      A
 Frequencies --   3039.6708              3067.7431              3075.0443
 Red. masses --      1.0702                 1.0612                 1.0364
 Frc consts  --      5.8260                 5.8841                 5.7739
 IR Inten    --     94.7740                54.4660                43.5300

                     79                     80                     81
                      A                      A                      A
 Frequencies --   3103.2743              3106.6375              3123.0267
 Red. masses --      1.0977                 1.0296                 1.0975
 Frc consts  --      6.2286                 5.8549                 6.3070
 IR Inten    --     17.1631                 1.5746                66.1367

                     82                     83                     84
                      A                      A                      A
 Frequencies --   3143.8696              3152.9003              3213.5657
 Red. masses --      1.1036                 1.1022                 1.1073
 Frc consts  --      6.4266                 6.4553                 6.7372
 IR Inten    --     98.9525                52.6357                 2.5238

                     85                     86                     87
                      A                      A                      A
 Frequencies --   3222.8622              3224.8686              3231.6856
 Red. masses --      1.1088                 1.0885                 1.0909
 Frc consts  --      6.7854                 6.6699                 6.7127
 IR Inten    --      2.8773                 8.6373                 0.2750

                     88                     89                     90
                      A                      A                      A
 Frequencies --   3238.7739              3266.7963              3607.6814
 Red. masses --      1.0956                 1.0927                 1.0771
 Frc consts  --      6.7710                 6.8704                 8.2597
 IR Inten    --      6.6682                 2.6037                67.1485

 - Thermochemistry -
 -------------------
 Temperature   298.150 Kelvin.  Pressure   1.00000 Atm.
 Atom     1 has atomic number  6 and mass  12.00000

 Molecular mass:   255.08034 amu.
 Principal axes and moments of inertia in atomic units:
                           1         2         3
     Eigenvalues --   973.48795********************
           X            0.99998  -0.00250   0.00614
           Y            0.00244   0.99994   0.01089
           Z           -0.00617  -0.01087   0.99992
 This molecule is an asymmetric top.
 Rotational symmetry number  1.
 Warning -- assumption of classical behavior for rotation
           may cause significant error
 Rotational temperatures (Kelvin)      0.08897     0.00595     0.00579
 Rotational constants (GHZ):           1.85389     0.12393     0.12056
 Zero-point vibrational energy     672743.6 (Joules/Mol)
                                  160.78957 (Kcal/Mol)
 Warning -- explicit consideration of  26 degrees of freedom as
           vibrations may cause significant error
 Vibrational temperatures:     33.35    41.55    47.46    67.38   109.47
          (Kelvin)            117.15   151.31   205.82   237.36   261.55
                              322.48   329.79   346.64   360.73   451.90
                              462.81   489.54   519.13   548.39   604.10
                              636.13   671.67   689.52   744.89   764.90
                              813.19   910.55   990.84  1036.15  1086.65
                             1097.44  1129.83  1153.57  1199.57  1221.76
                             1260.30  1302.06  1343.37  1412.69  1434.00
                             1435.12  1439.75  1452.06  1484.41  1553.96
                             1567.27  1618.42  1636.50  1645.86  1679.84
                             1704.33  1728.76  1775.78  1816.60  1845.85
                             1895.76  1905.70  1927.12  1931.05  1976.19
                             2001.00  2044.38  2065.91  2089.44  2093.09
                             2115.26  2138.88  2146.74  2162.68  2176.74
                             2197.57  2203.87  2247.35  2321.52  2393.06
                             4373.40  4413.79  4424.30  4464.91  4469.75
                             4493.33  4523.32  4536.31  4623.60  4636.97
                             4639.86  4649.67  4659.87  4700.19  5190.64

 Zero-point correction=                           0.256234 (Hartree/Particle)
 Thermal correction to Energy=                    0.273764
 Thermal correction to Enthalpy=                  0.274708
 Thermal correction to Gibbs Free Energy=         0.208140
 Sum of electronic and zero-point Energies=          -1161.103588
 Sum of electronic and thermal Energies=             -1161.086059
 Sum of electronic and thermal Enthalpies=           -1161.085115
 Sum of electronic and thermal Free Energies=        -1161.151683

                     E (Thermal)             CV                S
                      KCal/Mol        Cal/Mol-Kelvin    Cal/Mol-Kelvin
 Total                  171.789             63.987            140.104
 Electronic               0.000              0.000              0.000
 Translational            0.889              2.981             42.509
 Rotational               0.889              2.981             33.717
 Vibrational            170.012             58.025             63.878
 Vibration     1          0.593              1.985              6.341
 Vibration     2          0.593              1.984              5.905
 Vibration     3          0.594              1.983              5.641
 Vibration     4          0.595              1.979              4.947
 Vibration     5          0.599              1.965              3.989
 Vibration     6          0.600              1.962              3.856
 Vibration     7          0.605              1.945              3.356
 Vibration     8          0.616              1.910              2.763
 Vibration     9          0.623              1.885              2.492
 Vibration    10          0.630              1.865              2.310
 Vibration    11          0.649              1.804              1.925
 Vibration    12          0.652              1.796              1.885
 Vibration    13          0.658              1.778              1.796
 Vibration    14          0.663              1.762              1.726
 Vibration    15          0.702              1.647              1.341
 Vibration    16          0.707              1.632              1.302
 Vibration    17          0.720              1.595              1.211
 Vibration    18          0.735              1.553              1.119
 Vibration    19          0.751              1.510              1.035
 Vibration    20          0.783              1.427              0.892
 Vibration    21          0.802              1.378              0.820
 Vibration    22          0.824              1.324              0.746
 Vibration    23          0.836              1.296              0.712
 Vibration    24          0.873              1.211              0.615
 Vibration    25          0.887              1.180              0.584
 Vibration    26          0.921              1.107              0.514

 Optimization completed.
    -- Stationary point found.
 Normal termination of Gaussian 09 at Tue Oct 30 15:30:30 2018.
