 Gaussian 09, Revision E.01,

 ----------------------------------------------------------------------
 # M062X/Gen 6D SCF=Tight INT(grid=ultrafine) OPT IOP(2/17=4) maxdisk=2
 147483648
 ----------------------------------------------------------------------

 ------------------------
 3Nitro.M062X_6-31pGd_opt
 ------------------------
 Symbolic Z-matrix:
 Charge =  0 Multiplicity = 1

 SCF Done:  E(RM062X) =  -778.396397745     A.U. after   18 cycles
 SCF Done:  E(RM062X) =  -778.436411339     A.U. after   18 cycles
 SCF Done:  E(RM062X) =  -778.441604280     A.U. after   17 cycles
 SCF Done:  E(RM062X) =  -778.443841072     A.U. after   17 cycles
 SCF Done:  E(RM062X) =  -778.440860082     A.U. after   18 cycles
 SCF Done:  E(RM062X) =  -778.444361567     A.U. after   15 cycles
 SCF Done:  E(RM062X) =  -778.445227968     A.U. after   17 cycles
 SCF Done:  E(RM062X) =  -778.445692747     A.U. after   16 cycles
 SCF Done:  E(RM062X) =  -778.445912924     A.U. after   16 cycles
 SCF Done:  E(RM062X) =  -778.445920873     A.U. after   14 cycles
 SCF Done:  E(RM062X) =  -778.446543104     A.U. after   14 cycles
 SCF Done:  E(RM062X) =  -778.446546881     A.U. after   14 cycles
 SCF Done:  E(RM062X) =  -778.446547964     A.U. after   13 cycles
 SCF Done:  E(RM062X) =  -778.446548321     A.U. after   12 cycles
 SCF Done:  E(RM062X) =  -778.446548418     A.U. after   10 cycles
 SCF Done:  E(RM062X) =  -778.446548470     A.U. after   10 cycles
 SCF Done:  E(RM062X) =  -778.446548501     A.U. after   11 cycles
 SCF Done:  E(RM062X) =  -778.446548498     A.U. after   11 cycles
 Optimization completed.
    -- Stationary point found.
 Normal termination of Gaussian 09 at Tue Feb  5 12:34:56 2019.
 Gaussian 09:  ES64L-G09RevE.01 30-Nov-2015

 ----------------------------------------------------------------------
 # M062X/Gen 6D SCF=Tight INT(grid=ultrafine) OPT IOP(2/17=4) Freq=Nora
 man maxdisk=2147483648 geom=check guess=read IOP(2/17=4)
 ----------------------------------------------------------------------

 ------------------------
 3Nitro.M062X_6-31pGd_opt
 ------------------------
 Structure from the checkpoint file:  "3Nitro.M062X_6-31pGd_opt.chk"
 Charge =  0 Multiplicity = 1

 SCF Done:  E(RM062X) =  -778.446548498     A.U. after    1 cycles
 Optimization completed.
    -- Stationary point found.
 Normal termination of Gaussian 09 at Tue Feb  5 12:35:36 2019.

 ----------------------------------------------------------------------
 #N Geom=AllCheck Guess=TCheck SCRF=Check Test GenChk RM062X/ChkBas Fre
 q
 ----------------------------------------------------------------------

 Structure from the checkpoint file:  "3Nitro.M062X_6-31pGd_opt.chk"
 ------------------------
 3Nitro.M062X_6-31pGd_opt
 ------------------------
 Charge =  0 Multiplicity = 1

                         Standard orientation:
 ---------------------------------------------------------------------
 Center     Atomic      Atomic             Coordinates (Angstroms)
 Number     Number       Type             X           Y           Z
 ---------------------------------------------------------------------
      1          6           0        6.360360   -0.841087   -0.062779
      2          6           0        5.235046    0.190340   -0.020945
      3          6           0        3.868624   -0.477039    0.064693
      4          7           0        2.811160    0.526761    0.096143
      5          6           0        1.505669    0.114167   -0.032876
      6          8           0        1.194284   -1.031235   -0.302327
      7          7           0        0.585435    1.143500    0.144867
      8          6           0       -0.808873    1.046631    0.053382
      9          6           0       -1.494706   -0.173264    0.075863
     10          6           0       -1.537651    2.242444   -0.030076
     11          6           0       -2.925673    2.233443   -0.091976
     12          6           0       -3.626650    1.031249   -0.076088
     13          6           0       -2.880718   -0.135658    0.008229
     14          1           0        7.338478   -0.356029   -0.122975
     15          1           0        6.256236   -1.497310   -0.933177
     16          1           0        5.266786    0.824112   -0.915109
     17          1           0        5.376595    0.851757    0.845354
     18          1           0        3.812469   -1.128446    0.948421
     19          1           0        3.692884   -1.109088   -0.809906
     20          1           0        2.990774    1.342812    0.668676
     21          1           0       -0.971316   -1.117258    0.131606
     22          1           0       -1.006421    3.191427   -0.047526
     23          1           0       -3.464749    3.173001   -0.156999
     24          7           0       -3.605282   -1.424952    0.034171
     25          1           0       -4.707134    0.988381   -0.127046
     26          8           0       -2.948365   -2.443292    0.136085
     27          8           0       -4.821007   -1.385907   -0.045823
     28          1           0        6.351644   -1.470235    0.833580
     29          1           0        0.952695    2.085820    0.130780
 ---------------------------------------------------------------------

 SCF Done:  E(RM062X) =  -778.446548498     A.U. after    1 cycles

 The electronic state is 1-A.
 Alpha  occ. eigenvalues --  -19.68166 -19.68077 -19.62817 -15.01307 -14.82205
 Alpha  occ. eigenvalues --  -14.80199 -10.70143 -10.63104 -10.62028 -10.59283
 Alpha  occ. eigenvalues --  -10.58582 -10.58364 -10.57891 -10.57712 -10.56473
 Alpha  occ. eigenvalues --  -10.55113  -1.36873  -1.19586  -1.18257  -1.07963
 Alpha  occ. eigenvalues --   -1.04666  -0.99314  -0.91222  -0.89823  -0.86797
 Alpha  occ. eigenvalues --   -0.80520  -0.79245  -0.73761  -0.70156  -0.70028
 Alpha  occ. eigenvalues --   -0.68549  -0.65741  -0.64449  -0.62374  -0.59998
 Alpha  occ. eigenvalues --   -0.59173  -0.58909  -0.57208  -0.54709  -0.54275
 Alpha  occ. eigenvalues --   -0.53540  -0.52519  -0.51113  -0.49287  -0.47818
 Alpha  occ. eigenvalues --   -0.46485  -0.46268  -0.44932  -0.44008  -0.42120
 Alpha  occ. eigenvalues --   -0.41467  -0.39773  -0.38736  -0.37805  -0.37703
 Alpha  occ. eigenvalues --   -0.36260  -0.33975  -0.33586  -0.29270
 Alpha virt. eigenvalues --   -0.05281  -0.01214   0.00204   0.01391   0.02354
 Alpha virt. eigenvalues --    0.02701   0.03088   0.03196   0.03678   0.04579
 Alpha virt. eigenvalues --    0.04895   0.05448   0.06140   0.07002   0.07161

 Mulliken charges:
               1
     1  C   -0.716314
     2  C   -0.305619
     3  C   -0.182246
     4  N   -0.582563
     5  C    0.685808
     6  O   -0.552229
     7  N   -0.681863
     8  C    0.345588
     9  C    0.487195
    10  C   -0.810008
    11  C   -0.364930
    12  C    0.096621
    13  C   -0.388431
    14  H    0.214828
    15  H    0.216586
    16  H    0.226855
    17  H    0.201771
    18  H    0.217833
    19  H    0.243702
    20  H    0.386087
    21  H    0.314882
    22  H    0.199128
    23  H    0.220482
    24  N   -0.296574
    25  H    0.259024
    26  O   -0.020428
    27  O   -0.041440
    28  H    0.214888
    29  H    0.411366
 Sum of Mulliken charges =  -0.00000

 Dipole moment (field-independent basis, Debye):
    X=              5.3748    Y=              7.0306    Z=              1.0209  Tot=              8.9084
 Quadrupole moment (field-independent basis, Debye-Ang):
   XX=            -92.9933   YY=            -94.2649   ZZ=            -96.4009
   XY=            -10.5323   XZ=              3.0820   YZ=              0.6415

  Exact polarizability: 212.291  -3.615 156.588   3.461  -0.570  89.119
 Approx polarizability: 223.920  -5.173 205.253   5.856  -0.081 116.167

                      1                      2                      3
                      A                      A                      A
 Frequencies --     12.7532                24.2484                46.3859
 Red. masses --      2.6110                 5.1632                 8.3435
 Frc consts  --      0.0003                 0.0018                 0.0106
 IR Inten    --      1.8306                 0.4978                 0.3757

                      4                      5                      6
                      A                      A                      A
 Frequencies --     54.7999                63.5620                81.2404
 Red. masses --      3.6125                 4.2417                 3.1609
 Frc consts  --      0.0064                 0.0101                 0.0123
 IR Inten    --      4.2364                 2.9074                 0.1695

                      7                      8                      9
                      A                      A                      A
 Frequencies --    133.2836               172.1283               185.1679
 Red. masses --      5.7672                 4.9638                 2.6647
 Frc consts  --      0.0604                 0.0867                 0.0538
 IR Inten    --      2.8088                 1.2374                 0.1807

                     10                     11                     12
                      A                      A                      A
 Frequencies --    236.3036               242.2347               244.8928
 Red. masses --      1.1805                 4.5931                 3.2179
 Frc consts  --      0.0388                 0.1588                 0.1137
 IR Inten    --      0.1226                 7.5090                 1.5832

                     13                     14                     15
                      A                      A                      A
 Frequencies --    256.9363               338.7407               370.9219
 Red. masses --      6.4011                 3.7598                 6.8554
 Frc consts  --      0.2490                 0.2542                 0.5557
 IR Inten    --      2.0843                39.3043                 5.9755

                     16                     17                     18
                      A                      A                      A
 Frequencies --    376.8773               409.6152               434.0452
 Red. masses --      1.4716                 7.2875                 3.2788
 Frc consts  --      0.1232                 0.7204                 0.3639
 IR Inten    --     53.5284                 0.3484                 5.9080

                     19                     20                     21
                      A                      A                      A
 Frequencies --    456.0633               495.9920               545.3528
 Red. masses --      2.4725                 1.4701                 5.5564
 Frc consts  --      0.3030                 0.2131                 0.9736
 IR Inten    --     27.0540               107.2079                 4.5946

                     22                     23                     24
                      A                      A                      A
 Frequencies --    555.4698               626.7320               677.3155
 Red. masses --      6.0427                 5.0598                 2.5375
 Frc consts  --      1.0985                 1.1710                 0.6859
 IR Inten    --      3.2286                10.7131                16.4971

                     25                     26                     27
                      A                      A                      A
 Frequencies --    703.3274               751.7723               760.1364
 Red. masses --      6.8399                 2.0208                 3.2499
 Frc consts  --      1.9935                 0.6729                 1.1064
 IR Inten    --     18.9135                 8.0516                43.6603

                     28                     29                     30
                      A                      A                      A
 Frequencies --    765.4613               788.1147               819.4470
 Red. masses --      2.0715                 5.1248                 1.6992
 Frc consts  --      0.7151                 1.8754                 0.6723
 IR Inten    --     11.3505                 5.6648                25.0059

                     31                     32                     33
                      A                      A                      A
 Frequencies --    855.9444               899.4296               926.9079
 Red. masses --      9.4072                 1.1815                 1.4637
 Frc consts  --      4.0607                 0.5632                 0.7409
 IR Inten    --     38.8909                 3.1617                 3.6210

                     34                     35                     36
                      A                      A                      A
 Frequencies --    929.7515               951.0205               981.0922
 Red. masses --      1.6850                 1.3873                 4.3125
 Frc consts  --      0.8582                 0.7393                 2.4457
 IR Inten    --      4.5762                15.6110                 7.4198

                     37                     38                     39
                      A                      A                      A
 Frequencies --   1008.5485              1017.5669              1043.2006
 Red. masses --      1.3144                 6.0542                 4.1457
 Frc consts  --      0.7877                 3.6935                 2.6582
 IR Inten    --      0.1794                 0.7622                 2.5829

                     40                     41                     42
                      A                      A                      A
 Frequencies --   1079.0261              1126.2689              1136.0680
 Red. masses --      2.5884                 1.5748                 1.8459
 Frc consts  --      1.7756                 1.1770                 1.4037
 IR Inten    --      3.6013                30.5123                 5.4132

                     43                     44                     45
                      A                      A                      A
 Frequencies --   1151.9676              1165.3428              1180.5651
 Red. masses --      2.3318                 2.5183                 1.7486
 Frc consts  --      1.8232                 2.0150                 1.4359
 IR Inten    --      2.4760                 2.0827                 0.7153

                     46                     47                     48
                      A                      A                      A
 Frequencies --   1202.1465              1237.0496              1281.6089
 Red. masses --      1.1858                 1.6838                 1.3111
 Frc consts  --      1.0097                 1.5182                 1.2688
 IR Inten    --      4.3303               297.9505                91.4046

                     49                     50                     51
                      A                      A                      A
 Frequencies --   1299.4752              1312.4470              1327.2970
 Red. masses --      2.4331                 1.4287                 1.1424
 Frc consts  --      2.4208                 1.4499                 1.1858
 IR Inten    --      3.6057                33.8616                26.9603

                     52                     53                     54
                      A                      A                      A
 Frequencies --   1347.1302              1374.3248              1426.1610
 Red. masses --      1.3470                 4.9402                 1.5122
 Frc consts  --      1.4403                 5.4976                 1.8122
 IR Inten    --      5.3589               123.3259                 0.1146

                     55                     56                     57
                      A                      A                      A
 Frequencies --   1437.6612              1478.8304              1485.2188
 Red. masses --      1.3193                13.9457                 2.5800
 Frc consts  --      1.6066                17.9692                 3.3531
 IR Inten    --      2.5025               268.3663                58.6832

                     58                     59                     60
                      A                      A                      A
 Frequencies --   1516.3082              1524.1848              1527.2084
 Red. masses --      1.0599                 1.0522                 1.0749
 Frc consts  --      1.4358                 1.4402                 1.4771
 IR Inten    --      8.7349                22.1292                 2.5458

                     61                     62                     63
                      A                      A                      A
 Frequencies --   1532.4045              1540.3533              1551.7733
 Red. masses --      1.7466                 1.1991                 2.3280
 Frc consts  --      2.4165                 1.6763                 3.3028
 IR Inten    --    193.6363                63.4035                66.0181

                     64                     65                     66
                      A                      A                      A
 Frequencies --   1585.6034              1673.9987              1687.9842
 Red. masses --      2.3400                 5.6025                 8.0422
 Frc consts  --      3.4662                 9.2501                13.5008
 IR Inten    --    783.6237                71.1554               315.0426

                     67                     68                     69
                      A                      A                      A
 Frequencies --   1735.1876              1829.0328              3056.5060
 Red. masses --     11.0793                 8.9953                 1.0645
 Frc consts  --     19.6542                17.7300                 5.8593
 IR Inten    --    105.1124               260.7709                17.3539

                     70                     71                     72
                      A                      A                      A
 Frequencies --   3058.0338              3080.9100              3107.6592
 Red. masses --      1.0722                 1.0363                 1.0956
 Frc consts  --      5.9077                 5.7957                 6.2341
 IR Inten    --     40.5860                29.0506                15.9265

                     73                     74                     75
                      A                      A                      A
 Frequencies --   3146.4363              3153.4266              3161.4594
 Red. masses --      1.0972                 1.1014                 1.1019
 Frc consts  --      6.4000                 6.4528                 6.4888
 IR Inten    --      1.0499                47.1204                28.2640

                     76                     77                     78
                      A                      A                      A
 Frequencies --   3207.7163              3241.2764              3281.4599
 Red. masses --      1.0900                 1.0932                 1.0940
 Frc consts  --      6.6077                 6.7668                 6.9405
 IR Inten    --     10.7148                 7.7721                 5.1390

                     79                     80                     81
                      A                      A                      A
 Frequencies --   3307.9762              3618.1017              3638.2540
 Red. masses --      1.0920                 1.0772                 1.0770
 Frc consts  --      7.0403                 8.3081                 8.3996
 IR Inten    --     29.1131                22.8755                29.9614

 - Thermochemistry -
 -------------------
 Temperature   298.150 Kelvin.  Pressure   1.00000 Atm.
 Atom     1 has atomic number  6 and mass  12.00000

 Molecular mass:   223.09569 amu.
 Principal axes and moments of inertia in atomic units:
                           1         2         3
     Eigenvalues --  1417.655389089.88030**********
           X            0.99989  -0.01465   0.00084
           Y            0.01465   0.99989   0.00063
           Z           -0.00084  -0.00062   1.00000
 This molecule is an asymmetric top.
 Rotational symmetry number  1.
 Warning -- assumption of classical behavior for rotation
           may cause significant error
 Rotational temperatures (Kelvin)      0.06110     0.00953     0.00829
 Rotational constants (GHZ):           1.27305     0.19854     0.17268
 Zero-point vibrational energy     616403.6 (Joules/Mol)
                                  147.32399 (Kcal/Mol)
 Warning -- explicit consideration of  22 degrees of freedom as
           vibrations may cause significant error
 Vibrational temperatures:     18.35    34.89    66.74    78.84    91.45
          (Kelvin)            116.89   191.77   247.65   266.41   339.99
                              348.52   352.35   369.67   487.37   533.67
                              542.24   589.34   624.49   656.17   713.62
                              784.64   799.20   901.73   974.50  1011.93
                             1081.63  1093.67  1101.33  1133.92  1179.00
                             1231.51  1294.08  1333.61  1337.70  1368.30
                             1411.57  1451.07  1464.05  1500.93  1552.48
                             1620.45  1634.55  1657.42  1676.67  1698.57
                             1729.62  1779.84  1843.95  1869.65  1888.32
                             1909.68  1938.22  1977.34  2051.92  2068.47
                             2127.70  2136.90  2181.63  2192.96  2197.31
                             2204.79  2216.22  2232.65  2281.33  2408.51
                             2428.63  2496.54  2631.57  4397.62  4399.82
                             4432.74  4471.22  4527.01  4537.07  4548.63
                             4615.18  4663.47  4721.28  4759.43  5205.63
                             5234.63

 Zero-point correction=                           0.234776 (Hartree/Particle)
 Thermal correction to Energy=                    0.250473
 Thermal correction to Enthalpy=                  0.251417
 Thermal correction to Gibbs Free Energy=         0.188146
 Sum of electronic and zero-point Energies=           -778.211773
 Sum of electronic and thermal Energies=              -778.196076
 Sum of electronic and thermal Enthalpies=            -778.195131
 Sum of electronic and thermal Free Energies=         -778.258402

                     E (Thermal)             CV                S
                      KCal/Mol        Cal/Mol-Kelvin    Cal/Mol-Kelvin
 Total                  157.174             56.587            133.165
 Electronic               0.000              0.000              0.000
 Translational            0.889              2.981             42.110
 Rotational               0.889              2.981             33.265
 Vibrational            155.397             50.625             57.790
 Vibration     1          0.593              1.987              7.528
 Vibration     2          0.593              1.985              6.252
 Vibration     3          0.595              1.979              4.966
 Vibration     4          0.596              1.976              4.636
 Vibration     5          0.597              1.972              4.343
 Vibration     6          0.600              1.962              3.861
 Vibration     7          0.613              1.920              2.898
 Vibration     8          0.626              1.877              2.412
 Vibration     9          0.631              1.860              2.276
 Vibration    10          0.655              1.785              1.831
 Vibration    11          0.658              1.776              1.786
 Vibration    12          0.660              1.771              1.767
 Vibration    13          0.667              1.751              1.683
 Vibration    14          0.719              1.598              1.218
 Vibration    15          0.743              1.532              1.076
 Vibration    16          0.747              1.519              1.052
 Vibration    17          0.774              1.449              0.928
 Vibration    18          0.795              1.396              0.846
 Vibration    19          0.814              1.347              0.778
 Vibration    20          0.852              1.259              0.668
 Vibration    21          0.901              1.150              0.554
 Vibration    22          0.911              1.128              0.533

 Normal termination of Gaussian 09 at Tue Feb  5 13:09:30 2019.
