 Gaussian 09, Revision E.01,

 ----------------------------------------------------------------------
 # M062X/Gen 6D SCF=Tight INT(grid=ultrafine) OPT IOP(2/17=4) maxdisk=2
 147483648
 ----------------------------------------------------------------------

 ---------------------------
 3Nitro_a1.M062X_6-31pGd_opt
 ---------------------------
 Symbolic Z-matrix:
 Charge = -1 Multiplicity = 1

 SCF Done:  E(RM062X) =  -777.846299988     A.U. after   25 cycles
 SCF Done:  E(RM062X) =  -777.890758043     A.U. after   17 cycles
 SCF Done:  E(RM062X) =  -777.899130705     A.U. after   18 cycles
 SCF Done:  E(RM062X) =  -777.903356198     A.U. after   18 cycles
 SCF Done:  E(RM062X) =  -777.904334588     A.U. after   17 cycles
 SCF Done:  E(RM062X) =  -777.903446995     A.U. after   16 cycles
 SCF Done:  E(RM062X) =  -777.904529398     A.U. after   13 cycles
 SCF Done:  E(RM062X) =  -777.904804307     A.U. after   18 cycles
 SCF Done:  E(RM062X) =  -777.905085591     A.U. after   15 cycles
 SCF Done:  E(RM062X) =  -777.905174019     A.U. after   15 cycles
 SCF Done:  E(RM062X) =  -777.906839693     A.U. after   14 cycles
 SCF Done:  E(RM062X) =  -777.907007504     A.U. after   15 cycles
 SCF Done:  E(RM062X) =  -777.907078900     A.U. after   16 cycles
 SCF Done:  E(RM062X) =  -777.907117034     A.U. after   15 cycles
 SCF Done:  E(RM062X) =  -777.907127573     A.U. after   14 cycles
 SCF Done:  E(RM062X) =  -777.907128669     A.U. after   13 cycles
 SCF Done:  E(RM062X) =  -777.907128821     A.U. after   11 cycles
 SCF Done:  E(RM062X) =  -777.907128862     A.U. after   11 cycles
 Optimization completed.
    -- Stationary point found.
 Normal termination of Gaussian 09 at Tue Feb  5 11:47:48 2019.
 Gaussian 09:  ES64L-G09RevE.01 30-Nov-2015

 ----------------------------------------------------------------------
 # M062X/Gen 6D SCF=Tight INT(grid=ultrafine) OPT IOP(2/17=4) Freq=Nora
 man maxdisk=2147483648 geom=check guess=read IOP(2/17=4)
 ----------------------------------------------------------------------

 ---------------------------
 3Nitro_a1.M062X_6-31pGd_opt
 ---------------------------
 Structure from the checkpoint file:  "3Nitro_a1.M062X_6-31pGd_opt.chk"
 Charge = -1 Multiplicity = 1

 SCF Done:  E(RM062X) =  -777.907128862     A.U. after    2 cycles
 Optimization completed.
    -- Stationary point found.
 Normal termination of Gaussian 09 at Tue Feb  5 11:48:41 2019.

 ----------------------------------------------------------------------
 #N Geom=AllCheck Guess=TCheck SCRF=Check Test GenChk RM062X/ChkBas Fre
 q
 ----------------------------------------------------------------------

 Structure from the checkpoint file:  "3Nitro_a1.M062X_6-31pGd_opt.chk"
 ---------------------------
 3Nitro_a1.M062X_6-31pGd_opt
 ---------------------------
 Charge = -1 Multiplicity = 1

                         Standard orientation:
 ---------------------------------------------------------------------
 Center     Atomic      Atomic             Coordinates (Angstroms)
 Number     Number       Type             X           Y           Z
 ---------------------------------------------------------------------
      1          6           0        6.295717   -0.893625   -0.071702
      2          6           0        5.160846    0.006129    0.414550
      3          6           0        3.864879   -0.235851   -0.357045
      4          7           0        2.801376    0.627753    0.093906
      5          6           0        1.458214    0.199818   -0.002035
      6          8           0        1.225463   -1.020646   -0.060194
      7          7           0        0.613909    1.252305    0.004039
      8          6           0       -0.733787    1.069225   -0.002500
      9          6           0       -1.453505   -0.162272    0.013467
     10          6           0       -1.529824    2.249757   -0.021612
     11          6           0       -2.916193    2.225454   -0.026227
     12          6           0       -3.616670    1.018574   -0.010847
     13          6           0       -2.842186   -0.139062    0.009543
     14          1           0        7.220526   -0.721122    0.489663
     15          1           0        6.509710   -0.717572   -1.132772
     16          1           0        5.456009    1.060368    0.314435
     17          1           0        4.964713   -0.163029    1.479883
     18          1           0        3.516769   -1.261616   -0.203867
     19          1           0        4.062748   -0.122863   -1.440032
     20          1           0        2.893545    1.614338   -0.114832
     21          1           0       -0.916049   -1.099904    0.025942
     22          1           0       -0.994412    3.195478   -0.031632
     23          1           0       -3.468272    3.162666   -0.041174
     24          7           0       -3.556540   -1.429936    0.027679
     25          1           0       -4.697295    0.966176   -0.014017
     26          8           0       -2.906221   -2.460784    0.057598
     27          8           0       -4.783142   -1.411319    0.012219
     28          1           0        6.027055   -1.950666    0.038497
 ---------------------------------------------------------------------

 SCF Done:  E(RM062X) =  -777.907128862     A.U. after    1 cycles

 The electronic state is 1-A.
 Alpha  occ. eigenvalues --  -19.56268 -19.56070 -19.44981 -14.89138 -14.62810
 Alpha  occ. eigenvalues --  -14.57112 -10.50773 -10.47948 -10.45665 -10.45660
 Alpha  occ. eigenvalues --  -10.45382 -10.44714 -10.43959 -10.43467 -10.42367
 Alpha  occ. eigenvalues --  -10.42010  -1.24582  -1.05768  -1.00106  -0.88122
 Alpha  occ. eigenvalues --   -0.86654  -0.82916  -0.77774  -0.76117  -0.70439
 Alpha  occ. eigenvalues --   -0.66037  -0.65392  -0.58515  -0.56577  -0.54793
 Alpha  occ. eigenvalues --   -0.52318  -0.50156  -0.48490  -0.48219  -0.45114
 Alpha  occ. eigenvalues --   -0.44070  -0.43074  -0.41921  -0.39353  -0.38522
 Alpha  occ. eigenvalues --   -0.37667  -0.36533  -0.34815  -0.33721  -0.32466
 Alpha  occ. eigenvalues --   -0.31708  -0.31517  -0.29711  -0.29343  -0.28629
 Alpha  occ. eigenvalues --   -0.26937  -0.26086  -0.25659  -0.22288  -0.20817
 Alpha  occ. eigenvalues --   -0.19248  -0.17239  -0.15566  -0.10125
 Alpha virt. eigenvalues --    0.07254   0.10181   0.11515   0.11777   0.12977
 Alpha virt. eigenvalues --    0.13450   0.13828   0.14531   0.14940   0.15424
 Alpha virt. eigenvalues --    0.16141   0.16532   0.16977   0.17139   0.17355

 Mulliken charges:
               1
     1  C   -0.738773
     2  C   -0.230041
     3  C   -0.252952
     4  N   -0.528959
     5  C    0.617176
     6  O   -0.651030
     7  N   -0.515585
     8  C    0.015505
     9  C    0.146348
    10  C   -0.878291
    11  C   -0.281524
    12  C    0.071418
    13  C   -0.002088
    14  H    0.189568
    15  H    0.198919
    16  H    0.187735
    17  H    0.217040
    18  H    0.251915
    19  H    0.169764
    20  H    0.389972
    21  H    0.306770
    22  H    0.188141
    23  H    0.174929
    24  N   -0.361370
    25  H    0.218992
    26  O   -0.033596
    27  O   -0.077524
    28  H    0.207541
 Sum of Mulliken charges =  -1.00000

 Dipole moment (field-independent basis, Debye):
    X=              3.8383    Y=              2.9829    Z=             -0.5107  Tot=              4.8879
 Quadrupole moment (field-independent basis, Debye-Ang):
   XX=           -137.1898   YY=           -112.9686   ZZ=           -100.8163
   XY=            -10.2463   XZ=             -1.4027   YZ=             -1.1472

  Exact polarizability: 257.260  -9.456 169.451  -0.890   0.832  98.672
 Approx polarizability: 266.406 -11.552 219.925  -0.033   0.266 126.403

                      1                      2                      3
                      A                      A                      A
 Frequencies --     16.5634                28.1780                40.2879
 Red. masses --      3.1190                 9.2453                 5.9847
 Frc consts  --      0.0005                 0.0043                 0.0057
 IR Inten    --      1.0861                 0.2357                 2.8212

                      4                      5                      6
                      A                      A                      A
 Frequencies --     49.3051                73.1319               104.8216
 Red. masses --      3.3485                 2.6985                 4.6427
 Frc consts  --      0.0048                 0.0085                 0.0301
 IR Inten    --      3.1882                 1.2769                 0.6376

                      7                      8                      9
                      A                      A                      A
 Frequencies --    124.6162               174.7574               198.9618
 Red. masses --      4.5986                 5.6263                 3.6350
 Frc consts  --      0.0421                 0.1012                 0.0848
 IR Inten    --      3.3930                 1.9276                 3.5028

                     10                     11                     12
                      A                      A                      A
 Frequencies --    232.9983               250.9507               261.1569
 Red. masses --      1.1224                 4.5085                 5.3357
 Frc consts  --      0.0359                 0.1673                 0.2144
 IR Inten    --      0.0638                 2.7944                 0.2219

                     13                     14                     15
                      A                      A                      A
 Frequencies --    271.7554               349.1489               379.9583
 Red. masses --      4.5459                 4.5475                 7.4290
 Frc consts  --      0.1978                 0.3266                 0.6319
 IR Inten    --      1.0839                20.1523                11.6891

                     16                     17                     18
                      A                      A                      A
 Frequencies --    412.9960               441.4185               459.4003
 Red. masses --      7.8707                 3.4936                 3.9810
 Frc consts  --      0.7910                 0.4011                 0.4950
 IR Inten    --      0.7684                 0.6977                 7.6768

                     19                     20                     21
                      A                      A                      A
 Frequencies --    551.2837               565.2595               595.8724
 Red. masses --      6.6255                 4.6982                 2.4537
 Frc consts  --      1.1864                 0.8845                 0.5133
 IR Inten    --      0.3386                 1.6378                44.3618

                     22                     23                     24
                      A                      A                      A
 Frequencies --    644.2086               683.6905               701.2741
 Red. masses --      2.2162                 2.2997                 7.3059
 Frc consts  --      0.5419                 0.6333                 2.1169
 IR Inten    --     77.8867                25.4048                22.5938

                     25                     26                     27
                      A                      A                      A
 Frequencies --    750.0292               761.1931               780.2477
 Red. masses --      1.1822                 2.2721                 2.6240
 Frc consts  --      0.3918                 0.7757                 0.9412
 IR Inten    --      5.2742                46.2813                15.5499

                     28                     29                     30
                      A                      A                      A
 Frequencies --    796.7317               804.7513               853.9642
 Red. masses --      3.4068                 5.1951                10.5461
 Frc consts  --      1.2742                 1.9823                 4.5313
 IR Inten    --     22.0507                 7.6141                39.2381

                     31                     32                     33
                      A                      A                      A
 Frequencies --    890.3241               898.9038               918.0302
 Red. masses --      1.2762                 1.5821                 1.6785
 Frc consts  --      0.5960                 0.7532                 0.8335
 IR Inten    --     19.7290                 8.9787                 5.1474

                     34                     35                     36
                      A                      A                      A
 Frequencies --    937.4163               967.5370               987.6743
 Red. masses --      1.3578                 4.3702                 1.2968
 Frc consts  --      0.7030                 2.4104                 0.7454
 IR Inten    --     20.4809                 6.4498                 0.0078

                     37                     38                     39
                      A                      A                      A
 Frequencies --    999.1298              1015.6130              1070.0149
 Red. masses --      5.4423                 4.3435                 2.5659
 Frc consts  --      3.2009                 2.6396                 1.7309
 IR Inten    --    130.0956                20.0992                 6.2294

                     40                     41                     42
                      A                      A                      A
 Frequencies --   1109.9851              1120.9834              1143.8973
 Red. masses --      1.4634                 1.9134                 2.1144
 Frc consts  --      1.0623                 1.4166                 1.6301
 IR Inten    --     21.7155                26.5507                33.6340

                     43                     44                     45
                      A                      A                      A
 Frequencies --   1160.0321              1177.9998              1196.6203
 Red. masses --      1.7608                 1.1237                 3.0932
 Frc consts  --      1.3960                 0.9188                 2.6096
 IR Inten    --     19.9392                13.7476                84.7152

                     46                     47                     48
                      A                      A                      A
 Frequencies --   1248.1795              1276.5507              1297.6731
 Red. masses --      2.0528                 1.5054                 1.3951
 Frc consts  --      1.8843                 1.4453                 1.3842
 IR Inten    --    163.6115               234.9895                94.6244

                     49                     50                     51
                      A                      A                      A
 Frequencies --   1316.1535              1333.4228              1341.4243
 Red. masses --      1.2068                 1.9341                 2.1586
 Frc consts  --      1.2317                 2.0261                 2.2885
 IR Inten    --     46.0604                76.9925                12.2560

                     52                     53                     54
                      A                      A                      A
 Frequencies --   1405.9743              1424.9572              1440.1035
 Red. masses --      1.9037                 1.3086                 2.8051
 Frc consts  --      2.2171                 1.5655                 3.4276
 IR Inten    --    295.4107                18.2668               398.7973

                     55                     56                     57
                      A                      A                      A
 Frequencies --   1462.2581              1489.7185              1504.0608
 Red. masses --      8.8506                 4.0304                 1.9674
 Frc consts  --     11.1499                 5.2699                 2.6223
 IR Inten    --    292.1827                14.0540               797.9018

                     58                     59                     60
                      A                      A                      A
 Frequencies --   1511.1129              1522.3823              1522.5522
 Red. masses --      1.0842                 1.0639                 1.0666
 Frc consts  --      1.4587                 1.4528                 1.4568
 IR Inten    --     20.3803                23.6929                 0.3821

                     61                     62                     63
                      A                      A                      A
 Frequencies --   1532.6044              1542.6717              1610.9044
 Red. masses --      1.0939                 3.3649                 5.8418
 Frc consts  --      1.5138                 4.7181                 8.9318
 IR Inten    --     22.3541               533.9701                74.5331

                     64                     65                     66
                      A                      A                      A
 Frequencies --   1648.4794              1685.0665              1719.2231
 Red. masses --      8.1988                10.2755                 8.5984
 Frc consts  --     13.1271                17.1905                14.9738
 IR Inten    --    782.1719                37.5894               288.4897

                     67                     68                     69
                      A                      A                      A
 Frequencies --   2962.6073              3052.0050              3063.2859
 Red. masses --      1.0736                 1.0665                 1.0356
 Frc consts  --      5.5520                 5.8531                 5.7255
 IR Inten    --    136.3368                39.8674                51.0421

                     70                     71                     72
                      A                      A                      A
 Frequencies --   3102.6944              3131.6044              3134.5018
 Red. masses --      1.0955                 1.0993                 1.1014
 Frc consts  --      6.2134                 6.3520                 6.3756
 IR Inten    --     12.0622                46.5792                53.4611

                     73                     74                     75
                      A                      A                      A
 Frequencies --   3142.7858              3196.1997              3223.5279
 Red. masses --      1.0908                 1.0875                 1.0931
 Frc consts  --      6.3480                 6.5456                 6.6925
 IR Inten    --     29.5018                33.5899                27.3644

                     76                     77                     78
                      A                      A                      A
 Frequencies --   3278.6842              3304.8047              3625.2635
 Red. masses --      1.0925                 1.0902                 1.0758
 Frc consts  --      6.9197                 7.0154                 8.3303
 IR Inten    --      1.0785                21.1585                 9.2648

 - Thermochemistry -
 -------------------
 Temperature   298.150 Kelvin.  Pressure   1.00000 Atm.
 Atom     1 has atomic number  6 and mass  12.00000

 Molecular mass:   222.08787 amu.
 Principal axes and moments of inertia in atomic units:
                           1         2         3
     Eigenvalues --  1432.774078927.54518**********
           X            0.99987  -0.01609  -0.00054
           Y            0.01609   0.99987   0.00119
           Z            0.00052  -0.00120   1.00000
 This molecule is an asymmetric top.
 Rotational symmetry number  1.
 Warning -- assumption of classical behavior for rotation
           may cause significant error
 Rotational temperatures (Kelvin)      0.06045     0.00970     0.00842
 Rotational constants (GHZ):           1.25961     0.20215     0.17540
 Zero-point vibrational energy     580227.8 (Joules/Mol)
                                  138.67777 (Kcal/Mol)
 Warning -- explicit consideration of  21 degrees of freedom as
           vibrations may cause significant error
 Vibrational temperatures:     23.83    40.54    57.97    70.94   105.22
          (Kelvin)            150.81   179.29   251.44   286.26   335.23
                              361.06   375.75   390.99   502.35   546.67
                              594.21   635.10   660.97   793.17   813.28
                              857.33   926.87   983.68  1008.98  1079.12
                             1095.19  1122.60  1146.32  1157.86  1228.66
                             1280.98  1293.32  1320.84  1348.73  1392.07
                             1421.04  1437.52  1461.24  1539.51  1597.02
                             1612.84  1645.81  1669.03  1694.88  1721.67
                             1795.85  1836.67  1867.06  1893.65  1918.50
                             1930.01  2022.88  2050.19  2071.99  2103.86
                             2143.37  2164.01  2174.15  2190.37  2190.61
                             2205.07  2219.56  2317.73  2371.79  2424.43
                             2473.58  4262.53  4391.15  4407.38  4464.08
                             4505.67  4509.84  4521.76  4598.61  4637.93
                             4717.29  4754.87  5215.94

 Zero-point correction=                           0.220997 (Hartree/Particle)
 Thermal correction to Energy=                    0.236149
 Thermal correction to Enthalpy=                  0.237093
 Thermal correction to Gibbs Free Energy=         0.175158
 Sum of electronic and zero-point Energies=           -777.686132
 Sum of electronic and thermal Energies=              -777.670980
 Sum of electronic and thermal Enthalpies=            -777.670036
 Sum of electronic and thermal Free Energies=         -777.731971

                     E (Thermal)             CV                S
                      KCal/Mol        Cal/Mol-Kelvin    Cal/Mol-Kelvin
 Total                  148.186             54.789            130.354
 Electronic               0.000              0.000              0.000
 Translational            0.889              2.981             42.096
 Rotational               0.889              2.981             33.242
 Vibrational            146.408             48.827             55.015
 Vibration     1          0.593              1.986              7.009
 Vibration     2          0.593              1.984              5.954
 Vibration     3          0.594              1.981              5.245
 Vibration     4          0.595              1.978              4.845
 Vibration     5          0.599              1.967              4.067
 Vibration     6          0.605              1.945              3.363
 Vibration     7          0.610              1.928              3.028
 Vibration     8          0.627              1.874              2.384
 Vibration     9          0.637              1.841              2.143
 Vibration    10          0.654              1.790              1.856
 Vibration    11          0.663              1.761              1.724
 Vibration    12          0.669              1.744              1.654
 Vibration    13          0.675              1.725              1.585
 Vibration    14          0.726              1.577              1.170
 Vibration    15          0.750              1.513              1.039
 Vibration    16          0.777              1.442              0.916
 Vibration    17          0.801              1.380              0.822
 Vibration    18          0.817              1.340              0.768
 Vibration    19          0.907              1.137              0.542
 Vibration    20          0.921              1.106              0.513
 Vibration    21          0.954              1.041              0.457

 Normal termination of Gaussian 09 at Tue Feb  5 12:22:36 2019.
