 Gaussian 09, Revision E.01,

 ----------------------------------------------------------------------
 # M062X/Gen 6D SCF=Tight INT(grid=ultrafine) OPT IOP(2/17=4) SCRF=(SMD
 ,Solvent=n-Pentadecane) maxdisk=2147483648
 ----------------------------------------------------------------------

 ----------------------------------------------------
 aryl_urea_dichloro_CF3.M062X_6-31pGd_opt_Pentadecane
 ----------------------------------------------------
 Symbolic Z-matrix:
 Charge =  0 Multiplicity = 1

 SCF Done:  E(RM062X) =  -1830.11420149     A.U. after   16 cycles
 SCF Done:  E(RM062X) =  -1830.11491031     A.U. after   13 cycles
 SCF Done:  E(RM062X) =  -1830.11504252     A.U. after   13 cycles
 SCF Done:  E(RM062X) =  -1830.11511939     A.U. after   13 cycles
 SCF Done:  E(RM062X) =  -1830.11523702     A.U. after   11 cycles
 SCF Done:  E(RM062X) =  -1830.11538519     A.U. after   13 cycles
 SCF Done:  E(RM062X) =  -1830.11548989     A.U. after   12 cycles
 SCF Done:  E(RM062X) =  -1830.11555370     A.U. after   12 cycles
 SCF Done:  E(RM062X) =  -1830.11561784     A.U. after   13 cycles
 SCF Done:  E(RM062X) =  -1830.11567240     A.U. after   13 cycles
 SCF Done:  E(RM062X) =  -1830.11575730     A.U. after   13 cycles
 SCF Done:  E(RM062X) =  -1830.11579007     A.U. after   12 cycles
 SCF Done:  E(RM062X) =  -1830.11579754     A.U. after   11 cycles
 SCF Done:  E(RM062X) =  -1830.11580295     A.U. after   12 cycles
 SCF Done:  E(RM062X) =  -1830.11580787     A.U. after   11 cycles
 SCF Done:  E(RM062X) =  -1830.11581088     A.U. after   11 cycles
 SCF Done:  E(RM062X) =  -1830.11581176     A.U. after   10 cycles
 SCF Done:  E(RM062X) =  -1830.11581191     A.U. after    9 cycles
 Optimization completed.
    -- Stationary point found.
 Normal termination of Gaussian 09 at Thu Feb 21 23:04:07 2019.
 Gaussian 09:  ES64L-G09RevE.01 30-Nov-2015

 ----------------------------------------------------------------------
 # M062X/Gen 6D SCF=Tight INT(grid=ultrafine) SCRF=(SMD,Solvent=n-Penta
 decane) Freq=Noraman maxdisk=2147483648 geom=check guess=read IOP(2/17
 =4)
 ----------------------------------------------------------------------

 ----------------------------------------------------
 aryl_urea_dichloro_CF3.M062X_6-31pGd_opt_Pentadecane
 ----------------------------------------------------
 Structure from the checkpoint file:  "aryl_urea_dichloro_CF3.M062X_6-31pGd_opt_Pentadecane.chk"
 Charge =  0 Multiplicity = 1

                         Standard orientation:
 ---------------------------------------------------------------------
 Center     Atomic      Atomic             Coordinates (Angstroms)
 Number     Number       Type             X           Y           Z
 ---------------------------------------------------------------------
      1          6           0        2.845317   -0.082376    0.100791
      2          6           0        2.306173    1.197725    0.012482
      3          6           0        0.956664    1.333716   -0.270525
      4          6           0        0.121708    0.225015   -0.488942
      5          6           0        0.714988   -1.044732   -0.428678
      6          6           0        2.060867   -1.206772   -0.119292
      7          7           0       -1.235687    0.379913   -0.789343
      8          6           0       -2.214304   -0.105829    0.101097
      9          7           0       -3.485110    0.166813   -0.308001
     10          8           0       -1.931074   -0.691785    1.129638
     11          6           0       -4.622863   -0.345313    0.444646
     12          6           0       -5.904190    0.361729    0.022606
     13          6           0       -7.112296   -0.163623    0.792721
     14          1           0       -1.476813    1.242058   -1.266282
     15          1           0       -3.631193    0.355730   -1.293001
     16          1           0       -4.421149   -0.172942    1.505481
     17          1           0       -4.720477   -1.430924    0.303805
     18          1           0       -6.063956    0.217373   -1.054680
     19          1           0       -5.787684    1.439460    0.188304
     20          1           0       -7.255609   -1.235930    0.619639
     21          1           0       -8.028459    0.350046    0.486609
     22          1           0       -6.987048   -0.012032    1.870427
     23          1           0        2.920045    2.077313    0.179744
     24          1           0        2.485180   -2.203379   -0.069109
     25          6           0        4.311420   -0.217394    0.400454
     26          9           0        4.672772   -1.488325    0.627747
     27          9           0        5.070538    0.232343   -0.618735
     28          9           0        4.667522    0.500436    1.481235
     29         17           0       -0.218955   -2.454844   -0.803746
     30         17           0        0.276776    2.935283   -0.351725
 ---------------------------------------------------------------------

 SCF Done:  E(RM062X) =  -1830.11581191     A.U. after    1 cycles

 The electronic state is 1-A.
 Alpha  occ. eigenvalues -- -102.69658-102.68439 -25.31182 -25.30782 -25.30656
 Alpha  occ. eigenvalues --  -19.62189 -14.80839 -14.79273 -10.82211 -10.69291
 Alpha  occ. eigenvalues --  -10.64525 -10.64120 -10.63865 -10.60275 -10.59490
 Alpha  occ. eigenvalues --  -10.59306 -10.58312 -10.55245 -10.53961  -9.84283
 Alpha  occ. eigenvalues --   -9.83045  -7.56688  -7.56023  -7.56007  -7.55466
 Alpha  occ. eigenvalues --   -7.54782  -7.54756  -1.47582  -1.38449  -1.37920
 Alpha  occ. eigenvalues --   -1.18824  -1.07890  -1.04495  -1.01051  -0.99537
 Alpha  occ. eigenvalues --   -0.95703  -0.89470  -0.87932  -0.85170  -0.82332
 Alpha  occ. eigenvalues --   -0.78416  -0.74137  -0.72515  -0.69851  -0.69797
 Alpha  occ. eigenvalues --   -0.69018  -0.68334  -0.65907  -0.64699  -0.62615
 Alpha  occ. eigenvalues --   -0.59038  -0.57967  -0.57453  -0.56374  -0.54982
 Alpha  occ. eigenvalues --   -0.54516  -0.53865  -0.53786  -0.52689  -0.51848
 Alpha  occ. eigenvalues --   -0.51735  -0.51648  -0.51352  -0.49693  -0.47693
 Alpha  occ. eigenvalues --   -0.46770  -0.46150  -0.45486  -0.44799  -0.42974
 Alpha  occ. eigenvalues --   -0.41079  -0.40576  -0.40429  -0.40231  -0.38899
 Alpha  occ. eigenvalues --   -0.37598  -0.35864  -0.32824  -0.31866  -0.30536
 Alpha virt. eigenvalues --   -0.01920  -0.01199   0.00328   0.02089   0.02404
 Alpha virt. eigenvalues --    0.02727   0.03255   0.04154   0.04295   0.04417
 Alpha virt. eigenvalues --    0.05263   0.05402   0.05673   0.06033   0.06641

 Mulliken charges:
               1
     1  C   -1.271856
     2  C    0.494986
     3  C   -0.322676
     4  C    0.236360
     5  C   -0.187460
     6  C   -0.200296
     7  N   -0.719491
     8  C    0.286250
     9  N   -0.586999
    10  O   -0.508902
    11  C   -0.200624
    12  C   -0.321474
    13  C   -0.733221
    14  H    0.445590
    15  H    0.425510
    16  H    0.244517
    17  H    0.224068
    18  H    0.211324
    19  H    0.229416
    20  H    0.217723
    21  H    0.218212
    22  H    0.219053
    23  H    0.275869
    24  H    0.275785
    25  C    1.468535
    26  F   -0.329447
    27  F   -0.264627
    28  F   -0.274657
    29  Cl   0.235631
    30  Cl   0.212904
 Sum of Mulliken charges =  -0.00000

 Dipole moment (field-independent basis, Debye):
    X=             -4.4050    Y=              1.9817    Z=             -3.0890  Tot=              5.7335
 Quadrupole moment (field-independent basis, Debye-Ang):
   XX=           -114.1806   YY=           -123.1513   ZZ=           -126.8680
   XY=             -2.6273   XZ=              5.8043   YZ=             -0.1788

  Exact polarizability: 244.063   1.224 200.747  11.150  -1.507 131.180
 Approx polarizability: 225.427   0.014 226.975  16.874  -3.589 157.755

                      1                      2                      3
                      A                      A                      A
 Frequencies --     20.9287                22.2574                33.5903
 Red. masses --      8.4403                 7.5690                 7.7166
 Frc consts  --      0.0022                 0.0022                 0.0051
 IR Inten    --      0.0299                 0.7377                 0.2079

                      4                      5                      6
                      A                      A                      A
 Frequencies --     49.8531                65.8794                85.1709
 Red. masses --      1.9601                 3.8035                 5.8266
 Frc consts  --      0.0029                 0.0097                 0.0249
 IR Inten    --      0.1594                 3.0375                 6.2254

                      7                      8                      9
                      A                      A                      A
 Frequencies --     93.8393               112.7092               132.8184
 Red. masses --      4.7301                11.1978                14.1316
 Frc consts  --      0.0245                 0.0838                 0.1469
 IR Inten    --      1.4310                 0.8692                 3.2314

                     10                     11                     12
                      A                      A                      A
 Frequencies --    151.1180               183.8360               201.1991
 Red. masses --      8.3287                 3.8591                 7.3005
 Frc consts  --      0.1121                 0.0768                 0.1741
 IR Inten    --     10.5236                 2.7131                 0.6119

                     13                     14                     15
                      A                      A                      A
 Frequencies --    209.7632               231.0720               242.2084
 Red. masses --      4.7343                 4.8532                 1.1492
 Frc consts  --      0.1227                 0.1527                 0.0397
 IR Inten    --      0.2988                 6.1381                 0.1834

                     16                     17                     18
                      A                      A                      A
 Frequencies --    284.7083               299.4744               326.4057
 Red. masses --      8.9396                 8.6894                 4.7797
 Frc consts  --      0.4269                 0.4592                 0.3000
 IR Inten    --      0.5943                 1.7067                21.3192

                     19                     20                     21
                      A                      A                      A
 Frequencies --    329.5049               339.6657               391.3187
 Red. masses --      8.0514                 9.7658                 4.7330
 Frc consts  --      0.5150                 0.6638                 0.4270
 IR Inten    --     20.8160                 4.9142                26.3249

                     22                     23                     24
                      A                      A                      A
 Frequencies --    407.7202               429.1061               465.5239
 Red. masses --      2.6038                 2.4024                 9.2021
 Frc consts  --      0.2550                 0.2606                 1.1749
 IR Inten    --     45.9477                40.5175                 6.1819

                     25                     26                     27
                      A                      A                      A
 Frequencies --    484.5249               523.3526               529.2297
 Red. masses --      1.3683                 8.1392                 4.8838
 Frc consts  --      0.1893                 1.3135                 0.8059
 IR Inten    --    122.0505                 1.9132                14.8703

                     28                     29                     30
                      A                      A                      A
 Frequencies --    538.5402               547.5147               612.2970
 Red. masses --      3.5598                 8.7734                 8.2633
 Frc consts  --      0.6083                 1.5496                 1.8253
 IR Inten    --     32.0911                 3.0743                 0.0638

                     31                     32                     33
                      A                      A                      A
 Frequencies --    668.1063               693.9087               714.3382
 Red. masses --      6.8345                10.3823                 4.2779
 Frc consts  --      1.7974                 2.9454                 1.2861
 IR Inten    --      4.7866                31.7172                24.5898

                     34                     35                     36
                      A                      A                      A
 Frequencies --    754.2300               765.6005               782.9581
 Red. masses --      2.6435                 1.5569                 5.7192
 Frc consts  --      0.8860                 0.5377                 2.0657
 IR Inten    --     25.3582                 5.1158                 6.4453

                     37                     38                     39
                      A                      A                      A
 Frequencies --    816.4411               856.1286               902.1263
 Red. masses --      9.5938                 6.7822                 1.2504
 Frc consts  --      3.7678                 2.9289                 0.5996
 IR Inten    --     83.1281                49.9699                 6.5698

                     40                     41                     42
                      A                      A                      A
 Frequencies --    911.0459               918.6229               922.8071
 Red. masses --      1.6337                 3.3234                 1.4277
 Frc consts  --      0.7989                 1.6524                 0.7163
 IR Inten    --     43.7959                20.5239                 5.4027

                     43                     44                     45
                      A                      A                      A
 Frequencies --    933.5987              1040.7071              1077.0675
 Red. masses --      1.7854                 4.0885                 2.7239
 Frc consts  --      0.9169                 2.6090                 1.8618
 IR Inten    --      1.3581                18.9481                 8.2481

                     46                     47                     48
                      A                      A                      A
 Frequencies --   1113.0300              1145.7031              1148.9820
 Red. masses --      2.5434                 2.4780                 5.4361
 Frc consts  --      1.8564                 1.9164                 4.2283
 IR Inten    --      3.9012                 7.9725               116.2333

                     49                     50                     51
                      A                      A                      A
 Frequencies --   1164.2332              1183.4634              1195.3116
 Red. masses --      2.3350                 1.8820                12.7279
 Frc consts  --      1.8647                 1.5530                10.7144
 IR Inten    --      9.6193                 4.5719               317.2799

                     52                     53                     54
                      A                      A                      A
 Frequencies --   1225.7420              1242.6957              1255.6979
 Red. masses --      5.8468                 1.7398                 1.6674
 Frc consts  --      5.1757                 1.5829                 1.5490
 IR Inten    --    168.6135               111.4297               208.5408

                     55                     56                     57
                      A                      A                      A
 Frequencies --   1282.3478              1301.8260              1325.2932
 Red. masses --      1.3234                 2.4458                 1.3252
 Frc consts  --      1.2822                 2.4422                 1.3714
 IR Inten    --     75.3686               113.5326                63.9729

                     58                     59                     60
                      A                      A                      A
 Frequencies --   1328.3890              1347.0624              1377.8401
 Red. masses --      2.8125                 1.3614                 8.2016
 Frc consts  --      2.9241                 1.4555                 9.1737
 IR Inten    --     44.1174                17.9931               629.7653

                     61                     62                     63
                      A                      A                      A
 Frequencies --   1424.3858              1436.4746              1444.2320
 Red. masses --      1.5177                 1.3320                 3.0129
 Frc consts  --      1.8142                 1.6194                 3.7026
 IR Inten    --     10.0254                 1.6493               176.4894

                     64                     65                     66
                      A                      A                      A
 Frequencies --   1508.6646              1509.5637              1520.0572
 Red. masses --      1.6901                 1.1195                 1.0413
 Frc consts  --      2.2664                 1.5030                 1.4176
 IR Inten    --     29.8474                 2.1295                13.4747

                     67                     68                     69
                      A                      A                      A
 Frequencies --   1522.2327              1534.7650              1553.9330
 Red. masses --      1.0738                 1.1016                 4.7607
 Frc consts  --      1.4660                 1.5288                 6.7731
 IR Inten    --      1.5042                11.9006               214.6823

                     70                     71                     72
                      A                      A                      A
 Frequencies --   1564.3556              1654.4886              1690.2440
 Red. masses --      2.1860                 7.0437                 7.1368
 Frc consts  --      3.1519                11.3600                12.0130
 IR Inten    --    670.3739                29.6004                 6.4797

                     73                     74                     75
                      A                      A                      A
 Frequencies --   1824.0581              3060.8017              3063.6307
 Red. masses --      9.5105                 1.0670                 1.0672
 Frc consts  --     18.6437                 5.8895                 5.9016
 IR Inten    --    369.0404                18.0623                48.7731

                     76                     77                     78
                      A                      A                      A
 Frequencies --   3078.6401              3108.0916              3144.1516
 Red. masses --      1.0366                 1.0975                 1.0982
 Frc consts  --      5.7886                 6.2464                 6.3967
 IR Inten    --     34.6106                16.5652                 1.4867

                     79                     80                     81
                      A                      A                      A
 Frequencies --   3150.7639              3157.6086              3250.5921
 Red. masses --      1.1016                 1.1020                 1.0934
 Frc consts  --      6.4430                 6.4734                 6.8070
 IR Inten    --     60.5375                33.1442                 3.4665

                     82                     83                     84
                      A                      A                      A
 Frequencies --   3261.9950              3604.6008              3619.6875
 Red. masses --      1.0933                 1.0762                 1.0780
 Frc consts  --      6.8541                 8.2388                 8.3216
 IR Inten    --      4.9669                51.4714                62.4931

 - Thermochemistry -
 -------------------
 Temperature   298.150 Kelvin.  Pressure   1.00000 Atm.
 Atom     1 has atomic number  6 and mass  12.00000

 Molecular mass:   314.02005 amu.
 Principal axes and moments of inertia in atomic units:
                           1         2         3
     Eigenvalues --  2869.34489********************
           X            0.99998   0.00112  -0.00687
           Y           -0.00117   0.99998  -0.00648
           Z            0.00687   0.00649   0.99996
 This molecule is an asymmetric top.
 Rotational symmetry number  1.
 Warning -- assumption of classical behavior for rotation
           may cause significant error
 Rotational temperatures (Kelvin)      0.03019     0.00637     0.00561
 Rotational constants (GHZ):           0.62897     0.13269     0.11681
 Zero-point vibrational energy     570788.9 (Joules/Mol)
                                  136.42182 (Kcal/Mol)
 Warning -- explicit consideration of  30 degrees of freedom as
           vibrations may cause significant error
 Vibrational temperatures:     30.11    32.02    48.33    71.73    94.79
          (Kelvin)            122.54   135.01   162.16   191.10   217.42
                              264.50   289.48   301.80   332.46   348.48
                              409.63   430.88   469.62   474.08   488.70
                              563.02   586.62   617.39   669.78   697.12
                              752.99   761.44   774.84   787.75   880.96
                              961.25   998.38  1027.77  1085.17  1101.53
                             1126.50  1174.68  1231.78  1297.96  1310.79
                             1321.69  1327.71  1343.24  1497.34  1549.66
                             1601.40  1648.41  1653.13  1675.07  1702.74
                             1719.78  1763.57  1787.96  1806.67  1845.01
                             1873.03  1906.80  1911.25  1938.12  1982.40
                             2049.37  2066.76  2077.93  2170.63  2171.92
                             2187.02  2190.15  2208.18  2235.76  2250.76
                             2380.44  2431.88  2624.41  4403.81  4407.88
                             4429.47  4471.84  4523.73  4533.24  4543.09
                             4676.87  4693.28  5186.21  5207.92

 Zero-point correction=                           0.217402 (Hartree/Particle)
 Thermal correction to Energy=                    0.236459
 Thermal correction to Enthalpy=                  0.237403
 Thermal correction to Gibbs Free Energy=         0.166632
 Sum of electronic and zero-point Energies=          -1829.898410
 Sum of electronic and thermal Energies=             -1829.879353
 Sum of electronic and thermal Enthalpies=           -1829.878409
 Sum of electronic and thermal Free Energies=        -1829.949180

                     E (Thermal)             CV                S
                      KCal/Mol        Cal/Mol-Kelvin    Cal/Mol-Kelvin
 Total                  148.380             67.980            148.950
 Electronic               0.000              0.000              0.000
 Translational            0.889              2.981             43.129
 Rotational               0.889              2.981             34.755
 Vibrational            146.603             62.018             71.066
 Vibration     1          0.593              1.986              6.544
 Vibration     2          0.593              1.985              6.422
 Vibration     3          0.594              1.983              5.605
 Vibration     4          0.595              1.978              4.823
 Vibration     5          0.597              1.971              4.273
 Vibration     6          0.601              1.959              3.768
 Vibration     7          0.603              1.954              3.578
 Vibration     8          0.607              1.939              3.222
 Vibration     9          0.613              1.921              2.905
 Vibration    10          0.619              1.901              2.658
 Vibration    11          0.631              1.862              2.289
 Vibration    12          0.638              1.838              2.122
 Vibration    13          0.642              1.826              2.046
 Vibration    14          0.653              1.793              1.871
 Vibration    15          0.658              1.776              1.787
 Vibration    16          0.683              1.702              1.505
 Vibration    17          0.692              1.675              1.420
 Vibration    18          0.710              1.623              1.278
 Vibration    19          0.712              1.617              1.263
 Vibration    20          0.720              1.596              1.214
 Vibration    21          0.759              1.489              0.995
 Vibration    22          0.772              1.453              0.935
 Vibration    23          0.790              1.407              0.862
 Vibration    24          0.823              1.327              0.750
 Vibration    25          0.841              1.284              0.698
 Vibration    26          0.878              1.198              0.602
 Vibration    27          0.884              1.185              0.589
 Vibration    28          0.894              1.165              0.568
 Vibration    29          0.903              1.145              0.549
 Vibration    30          0.972              1.006              0.429

 Optimization completed.
    -- Stationary point found.
 Normal termination of Gaussian 09 at Thu Feb 21 23:55:49 2019.
