 Gaussian 09, Revision E.01,

 ----------------------------------------------------------------------
 # M062X/Gen 6D SCF=Tight INT(grid=ultrafine) OPT IOP(2/17=4) SCRF=(SMD
 ,Solvent=n-Pentadecane) maxdisk=3221225472
 ----------------------------------------------------------------------

 -------------------------------------------
 22Cl_4CF3_EtO.M062X_6-31pGd_opt_Pentadecane
 -------------------------------------------
 Symbolic Z-matrix:
 Charge = -1 Multiplicity = 1

 SCF Done:  E(RM062X) =  -2097.93818185     A.U. after   16 cycles
 SCF Done:  E(RM062X) =  -2097.93729259     A.U. after   16 cycles
 SCF Done:  E(RM062X) =  -2097.93823414     A.U. after   15 cycles
 SCF Done:  E(RM062X) =  -2097.93833529     A.U. after   13 cycles
 SCF Done:  E(RM062X) =  -2097.93839274     A.U. after   13 cycles
 SCF Done:  E(RM062X) =  -2097.93841015     A.U. after   12 cycles
 SCF Done:  E(RM062X) =  -2097.93842419     A.U. after   11 cycles
 SCF Done:  E(RM062X) =  -2097.93843335     A.U. after   12 cycles
 SCF Done:  E(RM062X) =  -2097.93843758     A.U. after   11 cycles
 SCF Done:  E(RM062X) =  -2097.93843973     A.U. after   11 cycles
 SCF Done:  E(RM062X) =  -2097.93844441     A.U. after   10 cycles
 SCF Done:  E(RM062X) =  -2097.93844458     A.U. after   10 cycles
 SCF Done:  E(RM062X) =  -2097.93844470     A.U. after    9 cycles
 SCF Done:  E(RM062X) =  -2097.93844479     A.U. after    9 cycles
 SCF Done:  E(RM062X) =  -2097.93844490     A.U. after    9 cycles
 SCF Done:  E(RM062X) =  -2097.93844505     A.U. after    9 cycles
 SCF Done:  E(RM062X) =  -2097.93844520     A.U. after    9 cycles
 SCF Done:  E(RM062X) =  -2097.93844529     A.U. after    9 cycles
 Optimization completed on the basis of negligible forces.
    -- Stationary point found.
 Normal termination of Gaussian 09 at Tue Feb 19 17:58:02 2019.
 Gaussian 09:  ES64L-G09RevE.01 30-Nov-2015

 ----------------------------------------------------------------------
 # M062X/Gen 6D SCF=Tight INT(grid=ultrafine) OPT IOP(2/17=4) SCRF=(SMD
 ,Solvent=n-Pentadecane) Freq=Noraman maxdisk=3221225472 geom=check gue
 ss=read IOP(2/17=4)
 ----------------------------------------------------------------------

 -------------------------------------------
 22Cl_4CF3_EtO.M062X_6-31pGd_opt_Pentadecane
 -------------------------------------------
 Structure from the checkpoint file:  "22Cl_4CF3_EtO.M062X_6-31pGd_opt_Pentadecane.chk"
 Charge = -1 Multiplicity = 1

 SCF Done:  E(RM062X) =  -2097.93844529     A.U. after    1 cycles
 Optimization completed.
    -- Stationary point found.
 Normal termination of Gaussian 09 at Tue Feb 19 17:59:18 2019.

 ----------------------------------------------------------------------
 #N Geom=AllCheck Guess=TCheck SCRF=Check Test GenChk RM062X/ChkBas Fre
 q
 ----------------------------------------------------------------------

 Structure from the checkpoint file:  "22Cl_4CF3_EtO.M062X_6-31pGd_opt_Pentadecane.chk"
 -------------------------------------------
 22Cl_4CF3_EtO.M062X_6-31pGd_opt_Pentadecane
 -------------------------------------------
 Charge = -1 Multiplicity = 1

                         Standard orientation:
 ---------------------------------------------------------------------
 Center     Atomic      Atomic             Coordinates (Angstroms)
 Number     Number       Type             X           Y           Z
 ---------------------------------------------------------------------
      1          6           0       -3.585985    0.000315   -0.009794
      2          6           0       -2.849955    0.886613   -0.788008
      3          6           0       -1.464569    0.796193   -0.783301
      4          6           0       -0.767740   -0.150492   -0.006535
      5          6           0       -1.559613   -1.002311    0.792297
      6          6           0       -2.945990   -0.948906    0.781363
      7          7           0        0.613726   -0.203130   -0.004192
      8          6           0        1.292559   -1.372543   -0.355559
      9          7           0        2.631769   -1.270124   -0.226047
     10          8           0        0.707156   -2.377364   -0.762079
     11          6           0        3.491202   -2.387101   -0.555023
     12          6           0        4.938403   -1.921339   -0.669489
     13          6           0        5.880895   -3.081650   -0.976191
     14          1           0        1.158497    0.691295    0.024862
     15          1           0        3.049154   -0.442142    0.238597
     16          1           0        3.154934   -2.830395   -1.500030
     17          1           0        3.412903   -3.176418    0.209037
     18          1           0        5.232813   -1.427987    0.264528
     19          1           0        5.004274   -1.158921   -1.455155
     20          1           0        5.845305   -3.839059   -0.184149
     21          1           0        6.917562   -2.739894   -1.063663
     22          1           0        5.609933   -3.573231   -1.918295
     23          1           0       -3.340484    1.631179   -1.405767
     24          1           0       -3.515042   -1.624282    1.411665
     25          6           0       -5.082325    0.032229   -0.051418
     26          9           0       -5.633789   -0.287039    1.135786
     27          9           0       -5.561473    1.242122   -0.395405
     28          9           0       -5.592000   -0.843263   -0.946126
     29         17           0       -0.801467   -2.098830    1.903883
     30         17           0       -0.561885    1.878405   -1.798096
     31          8           0        3.874343    0.949031    0.966913
     32          8           0        2.107271    2.114097    0.217589
     33          6           0        3.262533    2.019818    0.711342
     34          6           0        4.014450    3.321080    1.029826
     35          6           0        3.235139    4.595808    0.736997
     36          1           0        4.951389    3.295841    0.459027
     37          1           0        4.307699    3.274207    2.085928
     38          1           0        2.953324    4.645885   -0.318851
     39          1           0        3.828319    5.485843    0.980126
     40          1           0        2.309103    4.629291    1.318691
 ---------------------------------------------------------------------

 SCF Done:  E(RM062X) =  -2097.93844529     A.U. after    1 cycles

 The electronic state is 1-A.
 Alpha  occ. eigenvalues -- -102.62997-102.62898 -25.27195 -25.27075 -25.26629
 Alpha  occ. eigenvalues --  -19.53884 -19.52140 -19.51656 -14.71411 -14.69748
 Alpha  occ. eigenvalues --  -10.78081 -10.60896 -10.58372 -10.58351 -10.57680
 Alpha  occ. eigenvalues --  -10.56724 -10.54994 -10.54123 -10.54054 -10.51591
 Alpha  occ. eigenvalues --  -10.49082 -10.48868 -10.47587 -10.47384  -9.77590
 Alpha  occ. eigenvalues --   -9.77497  -7.50006  -7.49914  -7.49333  -7.49302
 Alpha  occ. eigenvalues --   -7.49240  -7.49212  -1.43547  -1.34447  -1.33891
 Alpha  occ. eigenvalues --   -1.10172  -1.08197  -1.00304  -0.98500  -0.96337
 Alpha  occ. eigenvalues --   -0.93963  -0.93461  -0.90026  -0.83374  -0.82092
 Alpha  occ. eigenvalues --   -0.79652  -0.79567  -0.77130  -0.72410  -0.68812
 Alpha  occ. eigenvalues --   -0.67144  -0.66002  -0.65813  -0.64612  -0.62844
 Alpha  occ. eigenvalues --   -0.61156  -0.60292  -0.57033  -0.55690  -0.54311
 Alpha  occ. eigenvalues --   -0.54052  -0.52485  -0.50971  -0.49866  -0.49623
 Alpha  occ. eigenvalues --   -0.49441  -0.49082  -0.48578  -0.47965  -0.46469
 Alpha  occ. eigenvalues --   -0.46307  -0.46216  -0.45437  -0.44996  -0.44418
 Alpha  occ. eigenvalues --   -0.43390  -0.42520  -0.41775  -0.40957  -0.40196
 Alpha  occ. eigenvalues --   -0.39405  -0.38937  -0.38646  -0.38159  -0.36986
 Alpha  occ. eigenvalues --   -0.35618  -0.34907  -0.34846  -0.34092  -0.33729
 Alpha  occ. eigenvalues --   -0.33427  -0.33005  -0.30031  -0.27895  -0.26279
 Alpha  occ. eigenvalues --   -0.24991  -0.24872  -0.24262  -0.23797  -0.22565
 Alpha virt. eigenvalues --    0.03628   0.04160   0.05429   0.06562   0.06815
 Alpha virt. eigenvalues --    0.07171   0.07794   0.08309   0.08499   0.08739
 Alpha virt. eigenvalues --    0.08765   0.09408   0.09921   0.10164   0.10319

 Mulliken charges:
               1
     1  C   -1.441314
     2  C    0.293974
     3  C   -0.194048
     4  C   -0.786242
     5  C    0.020652
     6  C    0.353271
     7  N   -0.615660
     8  C    0.351388
     9  N   -0.697407
    10  O   -0.559169
    11  C   -0.157410
    12  C   -0.300175
    13  C   -0.811815
    14  H    0.535882
    15  H    0.521106
    16  H    0.221324
    17  H    0.207424
    18  H    0.243384
    19  H    0.226776
    20  H    0.208154
    21  H    0.206626
    22  H    0.206613
    23  H    0.259847
    24  H    0.259816
    25  C    1.645907
    26  F   -0.307893
    27  F   -0.319728
    28  F   -0.269491
    29  Cl   0.212282
    30  Cl   0.266485
    31  O   -0.652504
    32  O   -0.624134
    33  C    0.612642
    34  C   -0.435291
    35  C   -0.729092
    36  H    0.215099
    37  H    0.215321
    38  H    0.217426
    39  H    0.183371
    40  H    0.216602
 Sum of Mulliken charges =  -1.00000

 Dipole moment (field-independent basis, Debye):
    X=             -4.7219    Y=             -0.2163    Z=             -0.4766  Tot=              4.7508
 Quadrupole moment (field-independent basis, Debye-Ang):
   XX=           -204.8966   YY=           -180.3559   ZZ=           -163.5087
   XY=             -9.2061   XZ=             -7.3286   YZ=             -5.3077

  Exact polarizability: 315.182  -8.075 247.555   2.284 -28.771 196.079
 Approx polarizability: 297.893  -3.649 258.722   5.323 -36.354 227.766

                      1                      2                      3
                      A                      A                      A
 Frequencies --     13.2912                24.0742                28.3326
 Red. masses --      7.5623                 5.8497                13.7938
 Frc consts  --      0.0008                 0.0020                 0.0065
 IR Inten    --      0.0127                 0.9388                 0.1740

                      4                      5                      6
                      A                      A                      A
 Frequencies --     29.8028                40.7018                45.4994
 Red. masses --      6.1909                 3.0313                 2.5445
 Frc consts  --      0.0032                 0.0030                 0.0031
 IR Inten    --      0.5932                 0.1196                 0.3911

                      7                      8                      9
                      A                      A                      A
 Frequencies --     56.0084                64.1572                67.8887
 Red. masses --      2.6212                 5.2164                 3.1323
 Frc consts  --      0.0048                 0.0127                 0.0085
 IR Inten    --      1.2647                 2.2196                 5.9619

                     10                     11                     12
                      A                      A                      A
 Frequencies --     76.8260                88.0529                98.2373
 Red. masses --      4.6486                 7.8347                 5.5832
 Frc consts  --      0.0162                 0.0358                 0.0317
 IR Inten    --      2.6603                 3.5149                 6.9551

                     13                     14                     15
                      A                      A                      A
 Frequencies --    104.7952               120.5901               136.8518
 Red. masses --      9.0171                 8.8104                14.0119
 Frc consts  --      0.0583                 0.0755                 0.1546
 IR Inten    --      4.6749                 1.7849                 3.5508

                     16                     17                     18
                      A                      A                      A
 Frequencies --    165.3384               171.2318               187.3944
 Red. masses --      9.2892                 3.7805                 5.0579
 Frc consts  --      0.1496                 0.0653                 0.1046
 IR Inten    --     13.8787                15.3670                14.4486

                     19                     20                     21
                      A                      A                      A
 Frequencies --    200.2580               211.2242               230.6777
 Red. masses --      8.2012                 4.7402                 5.0480
 Frc consts  --      0.1938                 0.1246                 0.1583
 IR Inten    --      2.7231                 0.2246                 5.9141

                     22                     23                     24
                      A                      A                      A
 Frequencies --    234.1755               238.6387               285.0458
 Red. masses --      1.1264                 1.2171                10.0004
 Frc consts  --      0.0364                 0.0408                 0.4787
 IR Inten    --      0.8421                 0.6373                 1.1924

                     25                     26                     27
                      A                      A                      A
 Frequencies --    289.8550               308.6609               329.3803
 Red. masses --      7.3403                 4.8527                 6.9847
 Frc consts  --      0.3633                 0.2724                 0.4465
 IR Inten    --      3.2300                21.2160                 4.8398

                     28                     29                     30
                      A                      A                      A
 Frequencies --    340.0470               343.1213               398.3491
 Red. masses --      7.6543                11.3355                 7.2265
 Frc consts  --      0.5215                 0.7863                 0.6756
 IR Inten    --      5.8117                16.6758                 5.4486

                     31                     32                     33
                      A                      A                      A
 Frequencies --    418.2965               466.2635               520.9751
 Red. masses --      7.4395                 9.4837                 5.7186
 Frc consts  --      0.7669                 1.2148                 0.9145
 IR Inten    --      9.2642                 5.7507                16.2226

                     34                     35                     36
                      A                      A                      A
 Frequencies --    523.5032               525.3192               533.4152
 Red. masses --      5.9255                 7.1390                 5.0517
 Frc consts  --      0.9568                 1.1607                 0.8469
 IR Inten    --     16.0487                 6.5242                 6.3545

                     37                     38                     39
                      A                      A                      A
 Frequencies --    546.4314               583.6717               611.5905
 Red. masses --      9.0787                 1.9620                 8.5088
 Frc consts  --      1.5971                 0.3938                 1.8752
 IR Inten    --      0.3667                 0.1871                 0.1426

                     40                     41                     42
                      A                      A                      A
 Frequencies --    657.4216               664.3964               693.7318
 Red. masses --      4.5565                 6.7556                11.2907
 Frc consts  --      1.1603                 1.7570                 3.2015
 IR Inten    --     59.3401                 5.4705                26.6618

                     43                     44                     45
                      A                      A                      A
 Frequencies --    712.3912               752.2684               761.0337
 Red. masses --      4.8448                 1.2930                 3.2075
 Frc consts  --      1.4486                 0.4311                 1.0945
 IR Inten    --     12.5329                15.1044                34.9886

                     46                     47                     48
                      A                      A                      A
 Frequencies --    780.8896               809.5185               815.6460
 Red. masses --      6.1077                 1.3097                 7.0359
 Frc consts  --      2.1944                 0.5057                 2.7579
 IR Inten    --      5.6647                50.7472                97.6043

                     49                     50                     51
                      A                      A                      A
 Frequencies --    822.7745               844.2259               871.9279
 Red. masses --      1.4375                 4.7931                 1.2787
 Frc consts  --      0.5733                 2.0127                 0.5728
 IR Inten    --      0.9848                10.4953               228.6064

                     52                     53                     54
                      A                      A                      A
 Frequencies --    895.1463               902.4934               906.5303
 Red. masses --      3.1448                 1.2270                 1.5208
 Frc consts  --      1.4847                 0.5888                 0.7363
 IR Inten    --     36.7124                 2.3725                45.9468

                     55                     56                     57
                      A                      A                      A
 Frequencies --    910.4486               915.1030               932.1273
 Red. masses --      1.3645                 3.6569                 1.9642
 Frc consts  --      0.6664                 1.8043                 1.0055
 IR Inten    --      1.5231                54.1833                 3.7348

                     58                     59                     60
                      A                      A                      A
 Frequencies --   1027.0488              1049.3253              1081.1060
 Red. masses --      1.6567                 4.1309                 2.6782
 Frc consts  --      1.0296                 2.6799                 1.8443
 IR Inten    --      2.9697                32.1816                 7.4266

                     61                     62                     63
                      A                      A                      A
 Frequencies --   1107.7074              1115.6425              1118.4100
 Red. masses --      1.7696                 2.3764                 2.2857
 Frc consts  --      1.2793                 1.7427                 1.6845
 IR Inten    --      0.5223                 5.7647                 6.4972

                     64                     65                     66
                      A                      A                      A
 Frequencies --   1147.3268              1155.6750              1181.1564
 Red. masses --      6.5483                 2.2968                 2.5170
 Frc consts  --      5.0787                 1.8074                 2.0689
 IR Inten    --     93.9494                14.7829               122.7625

                     67                     68                     69
                      A                      A                      A
 Frequencies --   1182.1773              1192.2969              1210.8566
 Red. masses --      3.7708                 3.4828                11.0026
 Frc consts  --      3.1049                 2.9171                 9.5046
 IR Inten    --    204.7710                16.4440               182.3760

                     70                     71                     72
                      A                      A                      A
 Frequencies --   1244.2016              1274.1039              1289.5749
 Red. masses --      1.4595                 1.2074                 1.1844
 Frc consts  --      1.3312                 1.1548                 1.1605
 IR Inten    --     46.6301                14.5837                 0.1292

                     73                     74                     75
                      A                      A                      A
 Frequencies --   1306.4476              1321.1095              1325.7139
 Red. masses --      2.4082                 2.3083                 1.2796
 Frc consts  --      2.4218                 2.3737                 1.3250
 IR Inten    --    173.1399               296.9973                81.2924

                     76                     77                     78
                      A                      A                      A
 Frequencies --   1329.3652              1337.1145              1360.5598
 Red. masses --      2.3030                 1.6516                 1.9116
 Frc consts  --      2.3979                 1.7398                 2.0849
 IR Inten    --    106.9568                40.8415               516.5098

                     79                     80                     81
                      A                      A                      A
 Frequencies --   1387.0288              1423.8246              1425.7415
 Red. masses --      6.6695                 1.4090                 1.3191
 Frc consts  --      7.5599                 1.6829                 1.5798
 IR Inten    --    407.4391                 1.3402                22.4521

                     82                     83                     84
                      A                      A                      A
 Frequencies --   1434.7390              1449.4665              1471.1465
 Red. masses --      1.4916                 3.7287                 2.9259
 Frc consts  --      1.8091                 4.6155                 3.7310
 IR Inten    --      0.5099               115.2885               368.8388

                     85                     86                     87
                      A                      A                      A
 Frequencies --   1485.7055              1507.2988              1509.9134
 Red. masses --      1.3465                 1.0653                 1.0396
 Frc consts  --      1.7512                 1.4260                 1.3965
 IR Inten    --     56.2196                 6.7550                 7.4379

                     88                     89                     90
                      A                      A                      A
 Frequencies --   1519.8637              1522.0395              1523.1708
 Red. masses --      1.0400                 1.0947                 1.0750
 Frc consts  --      1.4154                 1.4942                 1.4694
 IR Inten    --      8.8785                58.9666                 1.1735

                     91                     92                     93
                      A                      A                      A
 Frequencies --   1536.0890              1546.4973              1603.9376
 Red. masses --      1.0872                 4.9318                 2.3340
 Frc consts  --      1.5115                 6.9494                 3.5377
 IR Inten    --     13.1383                50.7556               213.8675

                     94                     95                     96
                      A                      A                      A
 Frequencies --   1633.1970              1650.1933              1676.8437
 Red. masses --      2.0858                 3.5287                 5.6486
 Frc consts  --      3.2779                 5.6615                 9.3578
 IR Inten    --     51.4010               121.1326               426.0770

                     97                     98                     99
                      A                      A                      A
 Frequencies --   1695.7922              1775.1370              2975.7464
 Red. masses --      4.4199                 5.2746                 1.1002
 Frc consts  --      7.4887                 9.7927                 5.7398
 IR Inten    --    837.8264               497.4716              1646.9807

                    100                    101                    102
                      A                      A                      A
 Frequencies --   3024.9837              3066.7921              3070.6714
 Red. masses --      1.0707                 1.0366                 1.0501
 Frc consts  --      5.7725                 5.7443                 5.8336
 IR Inten    --     99.2113                49.9837                62.7155

                    103                    104                    105
                      A                      A                      A
 Frequencies --   3077.3516              3084.8738              3092.3211
 Red. masses --      1.0517                 1.0632                 1.0895
 Frc consts  --      5.8682                 5.9615                 6.1382
 IR Inten    --     31.3700                12.2928                69.0929

                    106                    107                    108
                      A                      A                      A
 Frequencies --   3108.8333              3118.7859              3140.3190
 Red. masses --      1.1013                 1.1026                 1.1041
 Frc consts  --      6.2713                 6.3188                 6.4149
 IR Inten    --     17.1447                 0.9151                75.4528

                    109                    110                    111
                      A                      A                      A
 Frequencies --   3142.3302              3142.9315              3163.8978
 Red. masses --      1.0966                 1.1010                 1.1023
 Frc consts  --      6.3798                 6.4080                 6.5015
 IR Inten    --     48.1138                39.5405                41.8968

                    112                    113                    114
                      A                      A                      A
 Frequencies --   3174.6459              3252.6359              3253.7363
 Red. masses --      1.0922                 1.0927                 1.0930
 Frc consts  --      6.4852                 6.8109                 6.8177
 IR Inten    --   1696.0682                 0.6210                 0.7476

 - Thermochemistry -
 -------------------
 Temperature   298.150 Kelvin.  Pressure   1.00000 Atm.
 Atom     1 has atomic number  6 and mass  12.00000

 Molecular mass:   387.04901 amu.
 Principal axes and moments of inertia in atomic units:
                           1         2         3
     Eigenvalues --  6469.49178********************
           X            0.99998  -0.00562  -0.00307
           Y            0.00573   0.99933   0.03611
           Z            0.00286  -0.03613   0.99934
 This molecule is an asymmetric top.
 Rotational symmetry number  1.
 Warning -- assumption of classical behavior for rotation
           may cause significant error
 Rotational temperatures (Kelvin)      0.01339     0.00487     0.00406
 Rotational constants (GHZ):           0.27896     0.10151     0.08455
 Zero-point vibrational energy     779555.2 (Joules/Mol)
                                  186.31816 (Kcal/Mol)
 Warning -- explicit consideration of  39 degrees of freedom as
           vibrations may cause significant error
 Vibrational temperatures:     19.12    34.64    40.76    42.88    58.56
          (Kelvin)             65.46    80.58    92.31    97.68   110.54
                              126.69   141.34   150.78   173.50   196.90
                              237.88   246.36   269.62   288.13   303.90
                              331.89   336.93   343.35   410.12   417.04
                              444.09   473.90   489.25   493.67   573.13
                              601.83   670.85   749.57   753.20   755.82
                              767.46   786.19   839.77   879.94   945.88
                              955.92   998.12  1024.97  1082.35  1094.96
                             1123.52  1164.72  1173.53  1183.79  1214.65
                             1254.51  1287.91  1298.49  1304.29  1309.93
                             1316.63  1341.12  1477.69  1509.74  1555.47
                             1593.74  1605.16  1609.14  1650.75  1662.76
                             1699.42  1700.89  1715.45  1742.15  1790.13
                             1833.15  1855.41  1879.68  1900.78  1907.40
                             1912.66  1923.81  1957.54  1995.62  2048.56
                             2051.32  2064.27  2085.46  2116.65  2137.60
                             2168.66  2172.43  2186.74  2189.87  2191.50
                             2210.09  2225.06  2307.71  2349.80  2374.26
                             2412.60  2439.86  2554.02  4281.43  4352.27
                             4412.42  4418.01  4427.62  4438.44  4449.15
                             4472.91  4487.23  4518.21  4521.11  4521.97
                             4552.14  4567.60  4679.81  4681.40

 Zero-point correction=                           0.296917 (Hartree/Particle)
 Thermal correction to Energy=                    0.322704
 Thermal correction to Enthalpy=                  0.323648
 Thermal correction to Gibbs Free Energy=         0.235535
 Sum of electronic and zero-point Energies=          -2097.641528
 Sum of electronic and thermal Energies=             -2097.615741
 Sum of electronic and thermal Enthalpies=           -2097.614797
 Sum of electronic and thermal Free Energies=        -2097.702910

                     E (Thermal)             CV                S
                      KCal/Mol        Cal/Mol-Kelvin    Cal/Mol-Kelvin
 Total                  202.500             89.445            185.449
 Electronic               0.000              0.000              0.000
 Translational            0.889              2.981             43.752
 Rotational               0.889              2.981             36.150
 Vibrational            200.722             83.484            105.547
 Vibration     1          0.593              1.987              7.446
 Vibration     2          0.593              1.985              6.266
 Vibration     3          0.593              1.984              5.943
 Vibration     4          0.594              1.984              5.843
 Vibration     5          0.594              1.981              5.225
 Vibration     6          0.595              1.979              5.004
 Vibration     7          0.596              1.975              4.593
 Vibration     8          0.597              1.971              4.325
 Vibration     9          0.598              1.970              4.214
 Vibration    10          0.599              1.965              3.970
 Vibration    11          0.601              1.958              3.703
 Vibration    12          0.604              1.950              3.489
 Vibration    13          0.605              1.945              3.363
 Vibration    14          0.609              1.932              3.091
 Vibration    15          0.614              1.917              2.847
 Vibration    16          0.624              1.885              2.488
 Vibration    17          0.626              1.878              2.422
 Vibration    18          0.632              1.857              2.253
 Vibration    19          0.638              1.840              2.131
 Vibration    20          0.643              1.824              2.033
 Vibration    21          0.652              1.794              1.874
 Vibration    22          0.654              1.789              1.847
 Vibration    23          0.657              1.781              1.813
 Vibration    24          0.683              1.701              1.503
 Vibration    25          0.686              1.693              1.475
 Vibration    26          0.698              1.657              1.370
 Vibration    27          0.712              1.617              1.263
 Vibration    28          0.720              1.595              1.212
 Vibration    29          0.722              1.589              1.198
 Vibration    30          0.765              1.474              0.969
 Vibration    31          0.781              1.430              0.898
 Vibration    32          0.824              1.325              0.748
 Vibration    33          0.876              1.204              0.608
 Vibration    34          0.878              1.198              0.602
 Vibration    35          0.880              1.194              0.598
 Vibration    36          0.888              1.176              0.580
 Vibration    37          0.902              1.148              0.552
 Vibration    38          0.941              1.067              0.479
 Vibration    39          0.971              1.007              0.430

 Optimization completed on the basis of negligible forces.
    -- Stationary point found.
 Normal termination of Gaussian 09 at Tue Feb 19 18:59:06 2019.
