 Gaussian 09, Revision E.01,

 ----------------------------------------------------------------------
 # M062X/Gen 6D SCF=Tight INT(grid=ultrafine) OPT IOP(2/17=4) SCRF=(SMD
 ,Solvent=h2o) maxdisk=2684354560
 ----------------------------------------------------------------------

 -------------------------------------------
 2Nitro4Fluro_OS_EtO.M062X_6-31pGd_opt_water
 -------------------------------------------
 Symbolic Z-matrix:
 Charge = -1 Multiplicity = 1

 SCF Done:  E(RM062X) =  -1145.47705684     A.U. after   17 cycles
 SCF Done:  E(RM062X) =  -1145.51329046     A.U. after   17 cycles
 SCF Done:  E(RM062X) =  -1145.50159846     A.U. after   17 cycles
 SCF Done:  E(RM062X) =  -1145.52773059     A.U. after   15 cycles
 SCF Done:  E(RM062X) =  -1145.53061022     A.U. after   18 cycles
 SCF Done:  E(RM062X) =  -1145.52784904     A.U. after   17 cycles
 SCF Done:  E(RM062X) =  -1145.53321883     A.U. after   13 cycles
 SCF Done:  E(RM062X) =  -1145.53526614     A.U. after   18 cycles
 SCF Done:  E(RM062X) =  -1145.53565374     A.U. after   16 cycles
 SCF Done:  E(RM062X) =  -1145.53648056     A.U. after   15 cycles
 SCF Done:  E(RM062X) =  -1145.53740747     A.U. after   10 cycles
 SCF Done:  E(RM062X) =  -1145.53740798     A.U. after   10 cycles
 SCF Done:  E(RM062X) =  -1145.53740821     A.U. after   10 cycles
 SCF Done:  E(RM062X) =  -1145.53740820     A.U. after    9 cycles
 Optimization completed.
    -- Stationary point found.
 Normal termination of Gaussian 09 at Tue Feb 19 13:17:10 2019.
 Gaussian 09:  ES64L-G09RevE.01 30-Nov-2015

 ----------------------------------------------------------------------
 # M062X/Gen 6D SCF=Tight INT(grid=ultrafine) OPT IOP(2/17=4) SCRF=(SMD
 ,Solvent=h2o) Freq=Noraman maxdisk=2684354560 geom=check guess=read IO
 P(2/17=4)
 ----------------------------------------------------------------------

 -------------------------------------------
 2Nitro4Fluro_OS_EtO.M062X_6-31pGd_opt_water
 -------------------------------------------
 Structure from the checkpoint file:  "2Nitro4Fluro_OS_EtO.M062X_6-31pGd_opt_water.chk"
 Charge = -1 Multiplicity = 1

 SCF Done:  E(RM062X) =  -1145.53740820     A.U. after    1 cycles
 SCF Done:  E(RM062X) =  -1145.53740817     A.U. after    9 cycles
 SCF Done:  E(RM062X) =  -1145.53740823     A.U. after    9 cycles
 SCF Done:  E(RM062X) =  -1145.53740821     A.U. after    9 cycles
 SCF Done:  E(RM062X) =  -1145.53740818     A.U. after    9 cycles
 Optimization completed.
    -- Stationary point found.
 Normal termination of Gaussian 09 at Tue Feb 19 13:31:23 2019.

 ----------------------------------------------------------------------
 #N Geom=AllCheck Guess=TCheck SCRF=Check Test GenChk RM062X/ChkBas Fre
 q
 ----------------------------------------------------------------------

 Structure from the checkpoint file:  "2Nitro4Fluro_OS_EtO.M062X_6-31pGd_opt_water.chk"
 -------------------------------------------
 2Nitro4Fluro_OS_EtO.M062X_6-31pGd_opt_water
 -------------------------------------------
 Charge = -1 Multiplicity = 1

                         Standard orientation:
 ---------------------------------------------------------------------
 Center     Atomic      Atomic             Coordinates (Angstroms)
 Number     Number       Type             X           Y           Z
 ---------------------------------------------------------------------
      1          6           0       -4.778991   -3.273479   -0.832763
      2          6           0       -3.915479   -2.102235   -0.375854
      3          6           0       -2.441067   -2.369779   -0.640852
      4          7           0       -1.637150   -1.246032   -0.181109
      5          6           0       -0.308423   -1.224505   -0.354233
      6          8           0        0.337776   -2.166843   -0.844788
      7          7           0        0.296349   -0.038989    0.053189
      8          6           0        1.659817    0.188273   -0.039770
      9          6           0        2.654691   -0.752713    0.284248
     10          6           0        2.095694    1.443139   -0.489616
     11          6           0        3.448241    1.689275   -0.612017
     12          6           0        4.433386    0.746721   -0.342058
     13          6           0        4.014197   -0.494148    0.107277
     14          1           0       -5.838762   -3.077619   -0.644465
     15          1           0       -4.506014   -4.191784   -0.301071
     16          1           0       -4.062587   -1.922051    0.696360
     17          1           0       -4.215639   -1.186116   -0.899544
     18          1           0       -2.273691   -2.528305   -1.713355
     19          1           0       -2.125813   -3.283546   -0.122541
     20          1           0       -2.104228   -0.433697    0.245382
     21          1           0        1.373710    2.205548   -0.765280
     22          9           0        3.830700    2.906867   -1.043458
     23          7           0        2.324105   -2.022063    0.916249
     24          1           0        5.482407    0.988904   -0.467279
     25          8           0        2.993504   -3.002062    0.622388
     26          8           0        1.426233   -2.046014    1.744653
     27          1           0       -4.655043   -3.456012   -1.905998
     28          1           0       -0.305096    0.805779    0.039465
     29          1           0        4.736632   -1.261860    0.362034
     30          8           0       -1.362593    2.248889   -0.057440
     31          8           0       -2.931810    1.048663    0.988462
     32          6           0       -2.484826    2.136644    0.515898
     33          6           0       -3.375172    3.366969    0.656912
     34          6           0       -2.787742    4.660214    0.110845
     35          1           0       -3.614227    3.467215    1.722334
     36          1           0       -4.322779    3.130039    0.157939
     37          1           0       -1.853828    4.917531    0.620205
     38          1           0       -3.489618    5.487852    0.253978
     39          1           0       -2.575690    4.578566   -0.959632
 ---------------------------------------------------------------------

 SCF Done:  E(RM062X) =  -1145.53740818     A.U. after    1 cycles

 The electronic state is 1-A.
 Alpha  occ. eigenvalues --  -25.29292 -19.70004 -19.69943 -19.62215 -19.60824
 Alpha  occ. eigenvalues --  -19.60362 -15.03110 -14.79086 -14.77637 -10.68831
 Alpha  occ. eigenvalues --  -10.66017 -10.65175 -10.63523 -10.62005 -10.58686
 Alpha  occ. eigenvalues --  -10.57330 -10.57225 -10.56985 -10.53913 -10.53656
 Alpha  occ. eigenvalues --  -10.52797 -10.52609  -1.38716  -1.38448  -1.19676
 Alpha  occ. eigenvalues --   -1.17936  -1.16615  -1.06863  -1.06243  -1.03070
 Alpha  occ. eigenvalues --   -0.98667  -0.92012  -0.88428  -0.86236  -0.85764
 Alpha  occ. eigenvalues --   -0.80507  -0.77597  -0.73467  -0.72285  -0.71333
 Alpha  occ. eigenvalues --   -0.68412  -0.67877  -0.65458  -0.64795  -0.63760
 Alpha  occ. eigenvalues --   -0.62704  -0.62153  -0.59190  -0.58822  -0.57986
 Alpha  occ. eigenvalues --   -0.57133  -0.55446  -0.53891  -0.53175  -0.52807
 Alpha  occ. eigenvalues --   -0.52202  -0.52009  -0.51380  -0.50633  -0.50044
 Alpha  occ. eigenvalues --   -0.49471  -0.46727  -0.46504  -0.46055  -0.44697
 Alpha  occ. eigenvalues --   -0.44381  -0.43946  -0.41771  -0.41450  -0.41346
 Alpha  occ. eigenvalues --   -0.40002  -0.39751  -0.39620  -0.39521  -0.39000
 Alpha  occ. eigenvalues --   -0.37773  -0.36504  -0.33914  -0.32959  -0.32534
 Alpha  occ. eigenvalues --   -0.32430  -0.32310  -0.28591
 Alpha virt. eigenvalues --   -0.05665   0.00077   0.02080   0.02617   0.03180
 Alpha virt. eigenvalues --    0.03351   0.03810   0.04164   0.04317   0.04615
 Alpha virt. eigenvalues --    0.05550   0.05650   0.06034   0.06326   0.06834

 Mulliken charges:
               1
     1  C   -0.839498
     2  C   -0.324215
     3  C   -0.160229
     4  N   -0.767238
     5  C    0.590722
     6  O   -0.696952
     7  N   -0.603509
     8  C   -0.092729
     9  C    0.399020
    10  C    0.030849
    11  C    0.076615
    12  C   -0.087171
    13  C   -0.492241
    14  H    0.223197
    15  H    0.222040
    16  H    0.237688
    17  H    0.237094
    18  H    0.241070
    19  H    0.240066
    20  H    0.527105
    21  H    0.295964
    22  F   -0.339884
    23  N   -0.177261
    24  H    0.284827
    25  O   -0.109410
    26  O   -0.103456
    27  H    0.221710
    28  H    0.531124
    29  H    0.296569
    30  O   -0.752341
    31  O   -0.761320
    32  C    0.739639
    33  C   -0.505920
    34  C   -0.738211
    35  H    0.245435
    36  H    0.246509
    37  H    0.222582
    38  H    0.218975
    39  H    0.222786
 Sum of Mulliken charges =  -1.00000

 Dipole moment (field-independent basis, Debye):
    X=              2.7365    Y=              3.1808    Z=             -2.1528  Tot=              4.7160
 Quadrupole moment (field-independent basis, Debye-Ang):
   XX=           -129.9788   YY=           -163.0619   ZZ=           -142.0273
   XY=             15.6413   XZ=              7.7695   YZ=              2.9125

  Exact polarizability: 337.949  10.670 306.226 -23.200 -20.803 210.242
 Approx polarizability: 273.730   2.517 253.651 -22.930 -15.233 183.680

                      1                      2                      3
                      A                      A                      A
 Frequencies --     21.8667                25.1816                38.2078
 Red. masses --      5.3573                 4.9710                 4.0966
 Frc consts  --      0.0015                 0.0019                 0.0035
 IR Inten    --      0.8234                 5.4039                 0.1506

                      4                      5                      6
                      A                      A                      A
 Frequencies --     43.0770                55.0245                62.3674
 Red. masses --      2.5254                 4.0198                 4.2091
 Frc consts  --      0.0028                 0.0072                 0.0096
 IR Inten    --      2.5776                 4.6629                14.2664

                      7                      8                      9
                      A                      A                      A
 Frequencies --     69.9399                71.0484                79.9548
 Red. masses --      4.0968                 2.7925                 5.6442
 Frc consts  --      0.0118                 0.0083                 0.0213
 IR Inten    --      1.6611                 5.2917                 0.9198

                     10                     11                     12
                      A                      A                      A
 Frequencies --     92.7959                93.9729               101.7356
 Red. masses --      4.9958                 6.5819                 7.5702
 Frc consts  --      0.0253                 0.0342                 0.0462
 IR Inten    --      8.2701                 1.0939                10.2877

                     13                     14                     15
                      A                      A                      A
 Frequencies --    118.2855               159.7326               165.8955
 Red. masses --      6.5087                 4.7230                 3.5378
 Frc consts  --      0.0537                 0.0710                 0.0574
 IR Inten    --     13.1069                22.4919                14.6574

                     16                     17                     18
                      A                      A                      A
 Frequencies --    191.4095               220.0964               242.6969
 Red. masses --      8.2732                 6.6263                 1.3680
 Frc consts  --      0.1786                 0.1891                 0.0475
 IR Inten    --     13.4318                14.0350                 1.3882

                     19                     20                     21
                      A                      A                      A
 Frequencies --    244.9328               250.0862               268.1540
 Red. masses --      3.2453                 1.0886                 6.2284
 Frc consts  --      0.1147                 0.0401                 0.2639
 IR Inten    --      5.5747                 1.6608                 9.1032

                     22                     23                     24
                      A                      A                      A
 Frequencies --    290.6808               304.9895               326.8826
 Red. masses --      7.0738                 4.2701                 6.0532
 Frc consts  --      0.3522                 0.2340                 0.3811
 IR Inten    --      8.5636                22.3250                 3.6808

                     25                     26                     27
                      A                      A                      A
 Frequencies --    347.4001               367.2232               442.4817
 Red. masses --      5.4555                11.6405                 4.6049
 Frc consts  --      0.3879                 0.9249                 0.5312
 IR Inten    --     29.0097                 0.2432                 8.6576

                     28                     29                     30
                      A                      A                      A
 Frequencies --    465.6583               474.1240               520.0370
 Red. masses --      4.4745                 3.9832                 5.7203
 Frc consts  --      0.5716                 0.5276                 0.9115
 IR Inten    --      6.9873                 6.8586                31.3505

                     31                     32                     33
                      A                      A                      A
 Frequencies --    562.9975               580.6851               629.3505
 Red. masses --      6.2836                 1.9233                 6.9440
 Frc consts  --      1.1735                 0.3821                 1.6205
 IR Inten    --      3.5678                 1.8100                48.1141

                     34                     35                     36
                      A                      A                      A
 Frequencies --    634.3349               641.4312               650.9734
 Red. masses --      4.1792                 5.3646                 3.8092
 Frc consts  --      0.9908                 1.3004                 0.9511
 IR Inten    --      3.0938                16.8195                85.5168

                     37                     38                     39
                      A                      A                      A
 Frequencies --    686.5736               705.7378               737.1183
 Red. masses --      1.3644                 4.2230                 2.6484
 Frc consts  --      0.3789                 1.2392                 0.8478
 IR Inten    --    163.4024                 6.2464                66.2631

                     40                     41                     42
                      A                      A                      A
 Frequencies --    761.1503               771.8692               776.8790
 Red. masses --      1.1998                 3.9432                 3.5792
 Frc consts  --      0.4096                 1.3841                 1.2727
 IR Inten    --      6.6665                29.0817                31.8813

                     43                     44                     45
                      A                      A                      A
 Frequencies --    779.6816               820.5847               835.8633
 Red. masses --      2.0152                 1.5030                 1.8379
 Frc consts  --      0.7218                 0.5963                 0.7565
 IR Inten    --    191.3397                37.9319                20.0555

                     46                     47                     48
                      A                      A                      A
 Frequencies --    851.8466               869.6476               884.1202
 Red. masses --      2.6567                 9.3592                 1.6537
 Frc consts  --      1.1359                 4.1704                 0.7616
 IR Inten    --    125.8590                43.5411                68.3361

                     49                     50                     51
                      A                      A                      A
 Frequencies --    891.1666               906.1027               930.5250
 Red. masses --      3.7531                 1.1528                 1.6596
 Frc consts  --      1.7561                 0.5576                 0.8467
 IR Inten    --     38.4642                 2.8504                 7.1103

                     52                     53                     54
                      A                      A                      A
 Frequencies --    981.8921               998.7778              1028.4399
 Red. masses --      1.3827                 3.3576                 1.6458
 Frc consts  --      0.7854                 1.9734                 1.0256
 IR Inten    --     10.4219                48.4022                11.9997

                     55                     56                     57
                      A                      A                      A
 Frequencies --   1055.9736              1086.2667              1109.5758
 Red. masses --      3.6933                 2.5343                 1.7880
 Frc consts  --      2.4265                 1.7619                 1.2970
 IR Inten    --     39.4143                17.8588                 2.2851

                     58                     59                     60
                      A                      A                      A
 Frequencies --   1113.9222              1121.0346              1154.2888
 Red. masses --      2.3321                 2.0525                 2.0383
 Frc consts  --      1.7050                 1.5198                 1.6001
 IR Inten    --     16.3057                33.2896                30.2332

                     61                     62                     63
                      A                      A                      A
 Frequencies --   1172.2024              1178.4710              1181.8773
 Red. masses --      2.4354                 2.5700                 1.6104
 Frc consts  --      1.9716                 2.1029                 1.3253
 IR Inten    --      0.0106                25.5431                 0.8968

                     64                     65                     66
                      A                      A                      A
 Frequencies --   1227.6303              1281.0688              1283.2974
 Red. masses --      2.4287                 1.2045                 1.5645
 Frc consts  --      2.1566                 1.1647                 1.5181
 IR Inten    --    350.0455                 0.8630                17.0566

                     67                     68                     69
                      A                      A                      A
 Frequencies --   1291.7941              1302.4240              1327.4176
 Red. masses --      1.1700                 2.2398                 1.2917
 Frc consts  --      1.1503                 2.2386                 1.3410
 IR Inten    --      0.0927               419.8871                46.6986

                     70                     71                     72
                      A                      A                      A
 Frequencies --   1329.0663              1338.3194              1356.6576
 Red. masses --      1.8170                 1.7390                 1.8397
 Frc consts  --      1.8910                 1.8351                 1.9950
 IR Inten    --    126.1517                79.5512               205.0688

                     73                     74                     75
                      A                      A                      A
 Frequencies --   1386.8666              1421.2595              1422.0184
 Red. masses --      4.4477                 1.2897                 1.3117
 Frc consts  --      5.0403                 1.5349                 1.5627
 IR Inten    --     39.0475                 1.4238                35.2699

                     76                     77                     78
                      A                      A                      A
 Frequencies --   1431.0006              1455.9903              1462.9565
 Red. masses --      1.6942                 1.3268                10.8117
 Frc consts  --      2.0441                 1.6571                13.6334
 IR Inten    --     12.0153               174.5043               531.7732

                     79                     80                     81
                      A                      A                      A
 Frequencies --   1472.2779              1476.9259              1491.3202
 Red. masses --      2.9974                 3.3620                 1.0591
 Frc consts  --      3.8281                 4.3208                 1.3878
 IR Inten    --    126.8955               130.7880                 8.1415

                     82                     83                     84
                      A                      A                      A
 Frequencies --   1501.8922              1503.9304              1509.3579
 Red. masses --      1.0403                 1.0399                 1.1276
 Frc consts  --      1.3826                 1.3858                 1.5135
 IR Inten    --     11.5627                11.8919                84.6309

                     85                     86                     87
                      A                      A                      A
 Frequencies --   1512.8368              1530.1665              1536.6299
 Red. masses --      1.0825                 1.0963                 3.6795
 Frc consts  --      1.4596                 1.5124                 5.1189
 IR Inten    --      3.9864                54.6801               552.4755

                     88                     89                     90
                      A                      A                      A
 Frequencies --   1556.1456              1593.1733              1616.2760
 Red. masses --      7.7337                 3.1558                 3.3658
 Frc consts  --     11.0342                 4.7193                 5.1805
 IR Inten    --   1222.6357               532.1752              1295.5305

                     91                     92                     93
                      A                      A                      A
 Frequencies --   1617.4727              1669.9445              1701.2556
 Red. masses --      2.5435                 6.8346                 4.3572
 Frc consts  --      3.9206                11.2297                 7.4302
 IR Inten    --    411.1978               490.0340                 6.7347

                     94                     95                     96
                      A                      A                      A
 Frequencies --   1713.9346              3070.2446              3075.8948
 Red. masses --      3.5447                 1.0593                 1.0463
 Frc consts  --      6.1350                 5.8835                 5.8322
 IR Inten    --   1032.6816                 6.7240                18.0989

                     97                     98                     99
                      A                      A                      A
 Frequencies --   3077.3708              3084.0708              3085.3134
 Red. masses --      1.0488                 1.0477                 1.0503
 Frc consts  --      5.8518                 5.8715                 5.8904
 IR Inten    --    142.7857                57.4865                11.3573

                    100                    101                    102
                      A                      A                      A
 Frequencies --   3101.5251              3120.9384              3121.1327
 Red. masses --      1.1041                 1.1068                 1.1015
 Frc consts  --      6.2576                 6.3517                 6.3221
 IR Inten    --      3.0730                60.7739                 5.7292

                    103                    104                    105
                      A                      A                      A
 Frequencies --   3145.8336              3154.5644              3156.4109
 Red. masses --      1.1038                 1.1024                 1.1022
 Frc consts  --      6.4362                 6.4637                 6.4698
 IR Inten    --     92.5471               107.6326                42.6611

                    106                    107                    108
                      A                      A                      A
 Frequencies --   3159.8607              3163.5546              3248.0638
 Red. masses --      1.1035                 1.0897                 1.0942
 Frc consts  --      6.4919                 6.4254                 6.8013
 IR Inten    --     57.3070              1520.7902                 5.5365

                    109                    110                    111
                      A                      A                      A
 Frequencies --   3261.8369              3272.6881              3309.0554
 Red. masses --      1.0908                 1.0974                 1.0875
 Frc consts  --      6.8377                 6.9251                 7.0159
 IR Inten    --      2.1985                 8.2048              1456.6359

 - Thermochemistry -
 -------------------
 Temperature   298.150 Kelvin.  Pressure   1.00000 Atm.
 Atom     1 has atomic number  6 and mass  12.00000

 Molecular mass:   314.11522 amu.
 Principal axes and moments of inertia in atomic units:
                           1         2         3
     Eigenvalues --  6250.039459672.35628**********
           X            0.99997   0.00397   0.00608
           Y           -0.00406   0.99988   0.01477
           Z           -0.00603  -0.01479   0.99987
 This molecule is an asymmetric top.
 Rotational symmetry number  1.
 Warning -- assumption of classical behavior for rotation
           may cause significant error
 Rotational temperatures (Kelvin)      0.01386     0.00895     0.00587
 Rotational constants (GHZ):           0.28876     0.18659     0.12230
 Zero-point vibrational energy     802556.5 (Joules/Mol)
                                  191.81560 (Kcal/Mol)
 Warning -- explicit consideration of  32 degrees of freedom as
           vibrations may cause significant error
 Vibrational temperatures:     31.46    36.23    54.97    61.98    79.17
          (Kelvin)             89.73   100.63   102.22   115.04   133.51
                              135.21   146.37   170.19   229.82   238.69
                              275.40   316.67   349.19   352.40   359.82
                              385.81   418.22   438.81   470.31   499.83
                              528.35   636.63   669.98   682.16   748.22
                              810.03   835.48   905.49   912.67   922.88
                              936.60   987.82  1015.40  1060.55  1095.12
                             1110.55  1117.75  1121.79  1180.64  1202.62
                             1225.62  1251.23  1272.05  1282.19  1303.68
                             1338.82  1412.72  1437.02  1479.69  1519.31
                             1562.89  1596.43  1602.68  1612.92  1660.76
                             1686.54  1695.55  1700.46  1766.28  1843.17
                             1846.38  1858.60  1873.90  1909.86  1912.23
                             1925.54  1951.93  1995.39  2044.87  2045.96
                             2058.89  2094.84  2104.87  2118.28  2124.96
                             2145.67  2160.89  2163.82  2171.63  2176.63
                             2201.57  2210.86  2238.94  2292.22  2325.46
                             2327.18  2402.67  2447.72  2465.97  4417.39
                             4425.52  4427.64  4437.28  4439.07  4462.40
                             4490.33  4490.61  4526.15  4538.71  4541.37
                             4546.33  4551.64  4673.23  4693.05  4708.66
                             4760.99

 Zero-point correction=                           0.305678 (Hartree/Particle)
 Thermal correction to Energy=                    0.328703
 Thermal correction to Enthalpy=                  0.329647
 Thermal correction to Gibbs Free Energy=         0.249557
 Sum of electronic and zero-point Energies=          -1145.231731
 Sum of electronic and thermal Energies=             -1145.208706
 Sum of electronic and thermal Enthalpies=           -1145.207761
 Sum of electronic and thermal Free Energies=        -1145.287852

                     E (Thermal)             CV                S
                      KCal/Mol        Cal/Mol-Kelvin    Cal/Mol-Kelvin
 Total                  206.264             81.167            168.564
 Electronic               0.000              0.000              0.000
 Translational            0.889              2.981             43.130
 Rotational               0.889              2.981             35.144
 Vibrational            204.487             75.205             90.290
 Vibration     1          0.593              1.985              6.457
 Vibration     2          0.593              1.985              6.177
 Vibration     3          0.594              1.982              5.350
 Vibration     4          0.595              1.980              5.112
 Vibration     5          0.596              1.976              4.628
 Vibration     6          0.597              1.972              4.381
 Vibration     7          0.598              1.968              4.155
 Vibration     8          0.598              1.968              4.124
 Vibration     9          0.600              1.963              3.892
 Vibration    10          0.602              1.954              3.600
 Vibration    11          0.603              1.953              3.576
 Vibration    12          0.604              1.948              3.421
 Vibration    13          0.608              1.934              3.128
 Vibration    14          0.622              1.892              2.553
 Vibration    15          0.624              1.884              2.481
 Vibration    16          0.634              1.852              2.214
 Vibration    17          0.647              1.810              1.958
 Vibration    18          0.659              1.775              1.783
 Vibration    19          0.660              1.771              1.767
 Vibration    20          0.663              1.763              1.730
 Vibration    21          0.673              1.732              1.608
 Vibration    22          0.687              1.691              1.470
 Vibration    23          0.696              1.664              1.389
 Vibration    24          0.711              1.622              1.275
 Vibration    25          0.725              1.581              1.178
 Vibration    26          0.740              1.540              1.091
 Vibration    27          0.802              1.377              0.819
 Vibration    28          0.823              1.326              0.750
 Vibration    29          0.831              1.307              0.726
 Vibration    30          0.875              1.206              0.610
 Vibration    31          0.919              1.111              0.518
 Vibration    32          0.937              1.073              0.484

 Optimization completed.
    -- Stationary point found.
 Normal termination of Gaussian 09 at Tue Feb 19 14:22:40 2019.
